 Gaussian 09, Revision D.01,
 Gaussian 09:  ES64L-G09RevD.01 24-Apr-2013

 ---------------------------------
 #m062X/6-31+G(d) OPT Freq=noraman
 ---------------------------------

 -------------------
 1,3-dichlorobenzene
 -------------------
 Symbolic Z-matrix:
 Charge =  0 Multiplicity = 1

 SCF Done:  E(RM062X) =  -1151.28221606     A.U. after   14 cycles
 SCF Done:  E(RM062X) =  -1151.28308455     A.U. after   12 cycles
 SCF Done:  E(RM062X) =  -1151.28319791     A.U. after   10 cycles
 SCF Done:  E(RM062X) =  -1151.28319958     A.U. after    8 cycles
 Optimization completed.
    -- Stationary point found.
 Normal termination of Gaussian 09 at Sat Mar 15 12:56:10 2025.

 ---------------------------------------------------------------------
 #N Geom=AllCheck Guess=TCheck SCRF=Check GenChk RM062X/6-31+G(d) Freq
 ---------------------------------------------------------------------

 Structure from the checkpoint file:  "/srv/scratch/z5358697/gauss/Gau-2052472.chk"
 -------------------
 1,3-dichlorobenzene
 -------------------
 Charge =  0 Multiplicity = 1

                         Standard orientation:
 ---------------------------------------------------------------------
 Center     Atomic      Atomic             Coordinates (Angstroms)
 Number     Number       Type             X           Y           Z
 ---------------------------------------------------------------------
      1          6           0        0.000000   -2.074506    0.000000
      2          6           0       -1.211945   -1.388336    0.000000
      3          6           0       -1.193926    0.003023    0.000020
      4          6           0        0.000001    0.717593    0.000000
      5          6           0        1.193924    0.003028   -0.000016
      6          6           0        1.211943   -1.388337    0.000000
      7         17           0        2.698589    0.881200    0.000003
      8         17           0       -2.698587    0.881202   -0.000003
      9          1           0        0.000005   -3.160207   -0.000005
     10          1           0       -2.158001   -1.918764   -0.000003
     11          1           0        0.000002    1.802090   -0.000013
     12          1           0        2.158003   -1.918755   -0.000001
 ---------------------------------------------------------------------

 SCF Done:  E(RM062X) =  -1151.28319958     A.U. after    2 cycles

 The electronic state is 1-A.
 Alpha  occ. eigenvalues -- -102.68220-102.68220 -10.63643 -10.63642 -10.58724
 Alpha  occ. eigenvalues --  -10.58532 -10.58252 -10.58241  -9.82893  -9.82892
 Alpha  occ. eigenvalues --   -7.55303  -7.55303  -7.54628  -7.54628  -7.54613
 Alpha  occ. eigenvalues --   -7.54613  -1.02541  -0.98548  -0.93660  -0.86203
 Alpha  occ. eigenvalues --   -0.84035  -0.71896  -0.69430  -0.61504  -0.56711
 Alpha  occ. eigenvalues --   -0.55170  -0.51822  -0.51367  -0.49618  -0.44897
 Alpha  occ. eigenvalues --   -0.44606  -0.43991  -0.39590  -0.39294  -0.38553
 Alpha  occ. eigenvalues --   -0.32532  -0.31082
 Alpha virt. eigenvalues --   -0.00658  -0.00485   0.01293   0.02033   0.02795
 Alpha virt. eigenvalues --    0.03900   0.04362   0.05913   0.06048   0.06619
 Alpha virt. eigenvalues --    0.07782   0.08977   0.09272   0.09368   0.10302

 Mulliken charges:
               1
     1  C   -0.332723
     2  C   -0.284002
     3  C   -0.180974
     4  C   -0.056799
     5  C   -0.180977
     6  C   -0.284005
     7  Cl   0.189242
     8  Cl   0.189241
     9  H    0.223204
    10  H    0.233929
    11  H    0.249936
    12  H    0.233929
 Sum of Mulliken charges =   0.00000

 Dipole moment (field-independent basis, Debye):
    X=              0.0000    Y=             -1.7816    Z=              0.0000  Tot=              1.7816
 Quadrupole moment (field-independent basis, Debye-Ang):
   XX=            -62.8120   YY=            -53.7431   ZZ=            -63.4367
   XY=              0.0000   XZ=              0.0000   YZ=              0.0000

  Exact polarizability: 121.931   0.000  97.056   0.000   0.000  49.765
 Approx polarizability: 143.784   0.000 124.834   0.000   0.000  62.787

                      1                      2                      3
                      A                      A                      A
 Frequencies --    162.0496               195.2308               201.8280
 Red. masses --      6.5090                17.4747                 4.5242
 Frc consts  --      0.1007                 0.3924                 0.1086
 IR Inten    --      0.1783                 0.3428                 0.0000

                      4                      5                      6
                      A                      A                      A
 Frequencies --    370.5091               409.0282               434.2516
 Red. masses --      5.1419                14.5157                 9.4878
 Frc consts  --      0.4159                 1.4309                 1.0541
 IR Inten    --      0.2074                 3.0188                 4.1002

                      7                      8                      9
                      A                      A                      A
 Frequencies --    443.1449               544.0032               676.7161
 Red. masses --      3.0267                 5.3797                 7.3138
 Frc consts  --      0.3502                 0.9380                 1.9734
 IR Inten    --      4.9438                 0.0000                 2.0660

                     10                     11                     12
                      A                      A                      A
 Frequencies --    684.5604               793.6585               805.5191
 Red. masses --      2.5159                 1.3781                 8.3516
 Frc consts  --      0.6946                 0.5115                 3.1928
 IR Inten    --     16.4950                48.5910                88.5673

                     13                     14                     15
                      A                      A                      A
 Frequencies --    897.5240               916.7012              1003.5472
 Red. masses --      1.3979                 1.3696                 1.3202
 Frc consts  --      0.6635                 0.6781                 0.7834
 IR Inten    --     13.6898                 0.0000                 0.0774

                     16                     17                     18
                      A                      A                      A
 Frequencies --   1013.6640              1116.6566              1123.8257
 Red. masses --      6.5462                 1.9063                 1.5248
 Frc consts  --      3.9630                 1.4005                 1.1347
 IR Inten    --      6.4434                12.6483                21.8997

                     19                     20                     21
                      A                      A                      A
 Frequencies --   1163.9094              1194.5465              1298.4574
 Red. masses --      3.5373                 1.1107                 1.5771
 Frc consts  --      2.8234                 0.9338                 1.5666
 IR Inten    --     23.9374                 0.2764                 2.4749

                     22                     23                     24
                      A                      A                      A
 Frequencies --   1349.1984              1468.3876              1521.0763
 Red. masses --      3.6135                 2.9760                 2.4237
 Frc consts  --      3.8755                 3.7807                 3.3040
 IR Inten    --      0.3471                15.5944                76.5954

                     25                     26                     27
                      A                      A                      A
 Frequencies --   1668.5953              1672.8480              3218.0592
 Red. masses --      7.0968                 6.6480                 1.0886
 Frc consts  --     11.6417                10.9612                 6.6423
 IR Inten    --     24.4840                81.2773                 3.7711

                     28                     29                     30
                      A                      A                      A
 Frequencies --   3236.9750              3241.1028              3242.0002
 Red. masses --      1.0934                 1.0961                 1.0950
 Frc consts  --      6.7504                 6.7843                 6.7810
 IR Inten    --      0.0510                 0.0331                 2.1506

 - Thermochemistry -
 -------------------
 Temperature   298.150 Kelvin.  Pressure   1.00000 Atm.
 Atom     1 has atomic number  6 and mass  12.00000

 Molecular mass:   145.96901 amu.
 Principal axes and moments of inertia in atomic units:
                           1         2         3
     Eigenvalues --   638.598742100.364382738.96311
           X            1.00000   0.00000   0.00000
           Y            0.00000   1.00000   0.00000
           Z            0.00000   0.00000   1.00000
 This molecule is an asymmetric top.
 Rotational symmetry number  1.
 Warning -- assumption of classical behavior for rotation
           may cause significant error
 Rotational temperatures (Kelvin)      0.13563     0.04124     0.03162
 Rotational constants (GHZ):           2.82610     0.85925     0.65891
 Zero-point vibrational energy     215732.0 (Joules/Mol)
                                   51.56119 (Kcal/Mol)
 Warning -- explicit consideration of   8 degrees of freedom as
           vibrations may cause significant error
 Vibrational temperatures:    233.15   280.89   290.39   533.08   588.50
          (Kelvin)            624.79   637.59   782.70   973.64   984.93
                             1141.90  1158.96  1291.34  1318.93  1443.88
                             1458.43  1606.62  1616.93  1674.60  1718.68
                             1868.19  1941.19  2112.68  2188.49  2400.73
                             2406.85  4630.06  4657.28  4663.22  4664.51

 Zero-point correction=                           0.082168 (Hartree/Particle)
 Thermal correction to Energy=                    0.088823
 Thermal correction to Enthalpy=                  0.089767
 Thermal correction to Gibbs Free Energy=         0.050143
 Sum of electronic and zero-point Energies=          -1151.201032
 Sum of electronic and thermal Energies=             -1151.194377
 Sum of electronic and thermal Enthalpies=           -1151.193433
 Sum of electronic and thermal Free Energies=        -1151.233057

                     E (Thermal)             CV                S
                      KCal/Mol        Cal/Mol-Kelvin    Cal/Mol-Kelvin
 Total                   55.737             24.669             83.396
 Electronic               0.000              0.000              0.000
 Translational            0.889              2.981             40.845
 Rotational               0.889              2.981             29.687
 Vibrational             53.960             18.708             12.864
 Vibration     1          0.622              1.889              2.526
 Vibration     2          0.636              1.847              2.178
 Vibration     3          0.639              1.837              2.116
 Vibration     4          0.743              1.533              1.078
 Vibration     5          0.773              1.451              0.930
 Vibration     6          0.795              1.396              0.845
 Vibration     7          0.803              1.376              0.817
 Vibration     8          0.899              1.153              0.557

 Optimization completed.
    -- Stationary point found.
 Normal termination of Gaussian 09 at Sat Mar 15 13:00:36 2025.
