 Gaussian 09, Revision D.01,
 Gaussian 09:  ES64L-G09RevD.01 24-Apr-2013

 -------------------------------
 #m062X/def2SVP OPT Freq=noraman
 -------------------------------

 ----------
 iodoethane
 ----------
 Symbolic Z-matrix:
 Charge =  0 Multiplicity = 1

 SCF Done:  E(RM062X) =  -376.735641885     A.U. after   15 cycles
 SCF Done:  E(RM062X) =  -376.737001426     A.U. after   14 cycles
 SCF Done:  E(RM062X) =  -376.737196977     A.U. after   13 cycles
 SCF Done:  E(RM062X) =  -376.737202195     A.U. after    8 cycles
 Optimization completed.
    -- Stationary point found.
 Normal termination of Gaussian 09 at Wed Mar 19 11:43:35 2025.

 -------------------------------------------------------------------
 #N Geom=AllCheck Guess=TCheck SCRF=Check GenChk RM062X/def2SVP Freq
 -------------------------------------------------------------------

 Structure from the checkpoint file:  "/srv/scratch/z5358697/gauss/Gau-3510518.chk"
 ----------
 iodoethane
 ----------
 Charge =  0 Multiplicity = 1

                         Standard orientation:
 ---------------------------------------------------------------------
 Center     Atomic      Atomic             Coordinates (Angstroms)
 Number     Number       Type             X           Y           Z
 ---------------------------------------------------------------------
      1          6           0       -2.408369   -0.428718    0.000000
      2          6           0       -1.397545    0.697120    0.000000
      3         53           0        0.637596   -0.040307    0.000000
      4          1           0       -3.424687   -0.005040   -0.000037
      5          1           0       -2.300239   -1.062912   -0.889757
      6          1           0       -2.300282   -1.062870    0.889792
      7          1           0       -1.465942    1.328348    0.892517
      8          1           0       -1.465941    1.328347   -0.892517
 ---------------------------------------------------------------------

 SCF Done:  E(RM062X) =  -376.737202195     A.U. after    1 cycles

 The electronic state is 1-A.
 Alpha  occ. eigenvalues --  -10.60760 -10.56431  -7.08762  -5.08345  -5.07019
 Alpha  occ. eigenvalues --   -5.07007  -2.05174  -2.04707  -2.04698  -2.03606
 Alpha  occ. eigenvalues --   -2.03606  -0.88085  -0.77037  -0.68568  -0.54030
 Alpha  occ. eigenvalues --   -0.50412  -0.46609  -0.43424  -0.38160  -0.30502
 Alpha  occ. eigenvalues --   -0.30395
 Alpha virt. eigenvalues --    0.00944   0.09993   0.14176   0.14518   0.16870
 Alpha virt. eigenvalues --    0.17965   0.23784   0.33582   0.39336   0.39460
 Alpha virt. eigenvalues --    0.41725   0.45185   0.45795   0.46626   0.47595

 Mulliken charges:
               1
     1  C   -0.066458
     2  C   -0.280587
     3  I   -0.062673
     4  H    0.059696
     5  H    0.066388
     6  H    0.066388
     7  H    0.108623
     8  H    0.108623
 Sum of Mulliken charges =   0.00000

 Dipole moment (field-independent basis, Debye):
    X=             -1.9394    Y=              0.4978    Z=              0.0000  Tot=              2.0023
 Quadrupole moment (field-independent basis, Debye-Ang):
   XX=            -36.8043   YY=            -40.5083   ZZ=            -41.0346
   XY=             -1.5687   XZ=              0.0000   YZ=              0.0000

  Exact polarizability:  64.874  -4.093  38.783   0.000   0.000  35.775
 Approx polarizability:  75.555  -7.458  48.657   0.000   0.000  45.563

                      1                      2                      3
                      A                      A                      A
 Frequencies --    231.0396               263.2004               535.3624
 Red. masses --      1.0721                 3.1394                 3.8136
 Frc consts  --      0.0337                 0.1281                 0.6440
 IR Inten    --      0.0099                 1.0841                 8.0425

                      4                      5                      6
                      A                      A                      A
 Frequencies --    736.6563               973.5818               989.9669
 Red. masses --      1.1198                 1.3857                 1.1452
 Frc consts  --      0.3580                 0.7738                 0.6613
 IR Inten    --      7.1024                14.7151                 0.2619

                      7                      8                      9
                      A                      A                      A
 Frequencies --   1085.9634              1237.6643              1244.2486
 Red. masses --      2.5098                 1.2787                 1.2632
 Frc consts  --      1.7439                 1.1540                 1.1522
 IR Inten    --      0.0906                87.4738                 0.6473

                     10                     11                     12
                      A                      A                      A
 Frequencies --   1388.1201              1454.7281              1462.6457
 Red. masses --      1.2557                 1.0356                 1.1305
 Frc consts  --      1.4256                 1.2913                 1.4249
 IR Inten    --      4.8319                11.6540                 2.0345

                     13                     14                     15
                      A                      A                      A
 Frequencies --   1469.2901              3054.6152              3132.2683
 Red. masses --      1.0489                 1.0377                 1.0667
 Frc consts  --      1.3342                 5.7048                 6.1662
 IR Inten    --      1.6154                14.4367                 1.8901

                     16                     17                     18
                      A                      A                      A
 Frequencies --   3145.8570              3162.5864              3209.9871
 Red. masses --      1.0941                 1.1061                 1.1116
 Frc consts  --      6.3795                 6.5181                 6.7483
 IR Inten    --      9.7413                 5.4769                 0.9433

 - Thermochemistry -
 -------------------
 Temperature   298.150 Kelvin.  Pressure   1.00000 Atm.
 Atom     1 has atomic number  6 and mass  12.00000

 Molecular mass:   155.93953 amu.
 Principal axes and moments of inertia in atomic units:
                           1         2         3
     Eigenvalues --    61.61969 610.31052 649.06519
           X            0.99996   0.00866   0.00000
           Y           -0.00866   0.99996   0.00000
           Z            0.00000   0.00000   1.00000
 This molecule is an asymmetric top.
 Rotational symmetry number  1.
 Rotational temperatures (Kelvin)      1.40562     0.14192     0.13344
 Rotational constants (GHZ):          29.28838     2.95709     2.78052
 Zero-point vibrational energy     172129.4 (Joules/Mol)
                                   41.13990 (Kcal/Mol)
 Warning -- explicit consideration of   3 degrees of freedom as
           vibrations may cause significant error
 Vibrational temperatures:    332.41   378.69   770.27  1059.88  1400.77
          (Kelvin)           1424.34  1562.46  1780.72  1790.19  1997.19
                             2093.03  2104.42  2113.98  4394.90  4506.63
                             4526.18  4550.25  4618.45

 Zero-point correction=                           0.065561 (Hartree/Particle)
 Thermal correction to Energy=                    0.069832
 Thermal correction to Enthalpy=                  0.070776
 Thermal correction to Gibbs Free Energy=         0.037281
 Sum of electronic and zero-point Energies=           -376.671642
 Sum of electronic and thermal Energies=              -376.667370
 Sum of electronic and thermal Enthalpies=            -376.666426
 Sum of electronic and thermal Free Energies=         -376.699921

                     E (Thermal)             CV                S
                      KCal/Mol        Cal/Mol-Kelvin    Cal/Mol-Kelvin
 Total                   43.820             13.242             70.497
 Electronic               0.000              0.000              0.000
 Translational            0.889              2.981             41.042
 Rotational               0.889              2.981             24.705
 Vibrational             42.043              7.280              4.750
 Vibration     1          0.653              1.794              1.871
 Vibration     2          0.670              1.740              1.640
 Vibration     3          0.890              1.172              0.575

 Optimization completed.
    -- Stationary point found.
 Normal termination of Gaussian 09 at Wed Mar 19 11:44:14 2025.
