 Gaussian 09, Revision D.01,
 Gaussian 09:  ES64L-G09RevD.01 24-Apr-2013

 ---------------------------------
 #m062X/6-31+G(d) OPT Freq=noraman
 ---------------------------------

 --------------
 2-chlorophenol
 --------------
 Symbolic Z-matrix:
 Charge =  0 Multiplicity = 1

 SCF Done:  E(RM062X) =  -766.912420118     A.U. after   15 cycles
 SCF Done:  E(RM062X) =  -766.913421246     A.U. after   12 cycles
 SCF Done:  E(RM062X) =  -766.913521099     A.U. after   11 cycles
 SCF Done:  E(RM062X) =  -766.913527193     A.U. after   10 cycles
 Optimization completed.
    -- Stationary point found.
 Normal termination of Gaussian 09 at Fri Mar 21 00:23:52 2025.

 ---------------------------------------------------------------------
 #N Geom=AllCheck Guess=TCheck SCRF=Check GenChk RM062X/6-31+G(d) Freq
 ---------------------------------------------------------------------

 Structure from the checkpoint file:  "/srv/scratch/z5358697/gauss/Gau-2223229.chk"
 --------------
 2-chlorophenol
 --------------
 Charge =  0 Multiplicity = 1

                         Standard orientation:
 ---------------------------------------------------------------------
 Center     Atomic      Atomic             Coordinates (Angstroms)
 Number     Number       Type             X           Y           Z
 ---------------------------------------------------------------------
      1          6           0        2.351537    0.010369    0.000000
      2          6           0        1.826735   -1.282945    0.000000
      3          6           0        0.447608   -1.464794   -0.000001
      4          6           0       -0.392183   -0.356613   -0.000001
      5          6           0        0.122978    0.943496    0.000001
      6          6           0        1.508588    1.114657    0.000001
      7          8           0       -0.654720    2.051511   -0.000002
      8         17           0       -2.128121   -0.569413    0.000000
      9          1           0        3.426630    0.161600    0.000001
     10          1           0        2.483342   -2.146520    0.000000
     11          1           0        0.010852   -2.458548    0.000000
     12          1           0        1.895230    2.128785    0.000002
     13          1           0       -1.591822    1.797590    0.000004
 ---------------------------------------------------------------------

 SCF Done:  E(RM062X) =  -766.913527193     A.U. after    1 cycles

 The electronic state is 1-A.
 Alpha  occ. eigenvalues -- -102.68980 -19.68946 -10.63653 -10.62384 -10.57667
 Alpha  occ. eigenvalues --  -10.56991 -10.56567 -10.56504  -9.83631  -7.56023
 Alpha  occ. eigenvalues --   -7.55388  -7.55357  -1.20418  -1.00413  -0.95090
 Alpha  occ. eigenvalues --   -0.85898  -0.83706  -0.71658  -0.70931  -0.63726
 Alpha  occ. eigenvalues --   -0.59010  -0.55786  -0.52456  -0.51609  -0.50669
 Alpha  occ. eigenvalues --   -0.48066  -0.44895  -0.44212  -0.42209  -0.40918
 Alpha  occ. eigenvalues --   -0.39850  -0.31494  -0.29031
 Alpha virt. eigenvalues --    0.00463   0.01243   0.02195   0.02258   0.03322
 Alpha virt. eigenvalues --    0.04558   0.04977   0.06421   0.06618   0.06721
 Alpha virt. eigenvalues --    0.08809   0.09200   0.09243   0.09734   0.12772

 Mulliken charges:
               1
     1  C   -0.387009
     2  C   -0.121386
     3  C   -0.498471
     4  C    0.902030
     5  C   -0.801916
     6  C    0.079336
     7  O   -0.621712
     8  Cl   0.085949
     9  H    0.213952
    10  H    0.212764
    11  H    0.228922
    12  H    0.227606
    13  H    0.479934
 Sum of Mulliken charges =   0.00000

 Dipole moment (field-independent basis, Debye):
    X=              0.6899    Y=             -0.7781    Z=              0.0000  Tot=              1.0399
 Quadrupole moment (field-independent basis, Debye-Ang):
   XX=            -47.3131   YY=            -52.3406   ZZ=            -57.2648
   XY=             -1.8069   XZ=              0.0000   YZ=              0.0000

  Exact polarizability: 107.739  -0.736  88.818   0.000   0.000  46.130
 Approx polarizability: 130.686  -1.239 116.637   0.000   0.000  57.943

                      1                      2                      3
                      A                      A                      A
 Frequencies --    157.1116               260.7706               265.1866
 Red. masses --      5.0551                 9.1766                 5.4864
 Frc consts  --      0.0735                 0.3677                 0.2273
 IR Inten    --      0.0156                 1.8698                 0.8162

                      4                      5                      6
                      A                      A                      A
 Frequencies --    382.9170               394.7592               444.0680
 Red. masses --      8.9133                 1.0884                 3.1826
 Frc consts  --      0.7700                 0.0999                 0.3698
 IR Inten    --      2.0685               124.5106                 1.1709

                      7                      8                      9
                      A                      A                      A
 Frequencies --    503.8820               552.2012               566.2192
 Red. masses --      4.9607                 3.7180                 7.8036
 Frc consts  --      0.7421                 0.6680                 1.4741
 IR Inten    --     10.8816                 1.5116                 3.5515

                     10                     11                     12
                      A                      A                      A
 Frequencies --    694.8975               701.8436               773.8562
 Red. masses --      6.7301                 4.3723                 1.2548
 Frc consts  --      1.9148                 1.2689                 0.4427
 IR Inten    --     24.5730                 0.1085                77.4106

                     13                     14                     15
                      A                      A                      A
 Frequencies --    853.9444               870.1653               962.0580
 Red. masses --      5.9016                 1.3732                 1.3578
 Frc consts  --      2.5356                 0.6126                 0.7404
 IR Inten    --     12.5330                 1.4860                 1.8323

                     16                     17                     18
                      A                      A                      A
 Frequencies --   1006.9986              1063.7902              1082.0830
 Red. masses --      1.2840                 4.3891                 2.0021
 Frc consts  --      0.7672                 2.9264                 1.3812
 IR Inten    --      0.0556                40.2583                 8.7272

                     19                     20                     21
                      A                      A                      A
 Frequencies --   1161.1159              1185.0441              1232.8917
 Red. masses --      1.5072                 1.1158                 1.3832
 Frc consts  --      1.1972                 0.9232                 1.2387
 IR Inten    --      6.4377                 3.9927               111.5657

                     22                     23                     24
                      A                      A                      A
 Frequencies --   1300.4772              1350.9708              1382.2222
 Red. masses --      2.2036                 2.9405                 2.0850
 Frc consts  --      2.1958                 3.1620                 2.3470
 IR Inten    --     62.4652                39.0299                33.9715

                     25                     26                     27
                      A                      A                      A
 Frequencies --   1516.2436              1550.2541              1679.4092
 Red. masses --      2.5256                 3.2412                 6.4888
 Frc consts  --      3.4210                 4.5895                10.7827
 IR Inten    --      4.8653               151.5695                32.0453

                     28                     29                     30
                      A                      A                      A
 Frequencies --   1692.7358              3217.6058              3224.0203
 Red. masses --      6.7371                 1.0872                 1.0915
 Frc consts  --     11.3738                 6.6320                 6.6842
 IR Inten    --     29.3220                 2.1063                 1.7760

                     31                     32                     33
                      A                      A                      A
 Frequencies --   3234.2550              3247.3490              3784.7154
 Red. masses --      1.0947                 1.0971                 1.0654
 Frc consts  --      6.7465                 6.8162                 8.9911
 IR Inten    --      2.9340                 6.2493                92.4049

 - Thermochemistry -
 -------------------
 Temperature   298.150 Kelvin.  Pressure   1.00000 Atm.
 Atom     1 has atomic number  6 and mass  12.00000

 Molecular mass:   128.00289 amu.
 Principal axes and moments of inertia in atomic units:
                           1         2         3
     Eigenvalues --   606.059431168.476511774.53595
           X            0.99954  -0.03036   0.00000
           Y            0.03036   0.99954   0.00000
           Z            0.00000   0.00000   1.00000
 This molecule is an asymmetric top.
 Rotational symmetry number  1.
 Warning -- assumption of classical behavior for rotation
           may cause significant error
 Rotational temperatures (Kelvin)      0.14291     0.07413     0.04881
 Rotational constants (GHZ):           2.97783     1.54453     1.01702
 Zero-point vibrational energy     252986.6 (Joules/Mol)
                                   60.46526 (Kcal/Mol)
 Warning -- explicit consideration of   9 degrees of freedom as
           vibrations may cause significant error
 Vibrational temperatures:    226.05   375.19   381.54   550.93   567.97
          (Kelvin)            638.91   724.97   794.49   814.66   999.80
                             1009.80  1113.41  1228.63  1251.97  1384.19
                             1448.84  1530.55  1556.87  1670.58  1705.01
                             1773.85  1871.09  1943.74  1988.71  2181.53
                             2230.47  2416.29  2435.47  4629.41  4638.64
                             4653.37  4672.21  5445.35

 Zero-point correction=                           0.096358 (Hartree/Particle)
 Thermal correction to Energy=                    0.102922
 Thermal correction to Enthalpy=                  0.103866
 Thermal correction to Gibbs Free Energy=         0.065283
 Sum of electronic and zero-point Energies=           -766.817170
 Sum of electronic and thermal Energies=              -766.810605
 Sum of electronic and thermal Enthalpies=            -766.809661
 Sum of electronic and thermal Free Energies=         -766.848244

                     E (Thermal)             CV                S
                      KCal/Mol        Cal/Mol-Kelvin    Cal/Mol-Kelvin
 Total                   64.584             25.273             81.204
 Electronic               0.000              0.000              0.000
 Translational            0.889              2.981             40.454
 Rotational               0.889              2.981             28.621
 Vibrational             62.807             19.311             12.130
 Vibration     1          0.621              1.895              2.584
 Vibration     2          0.669              1.744              1.657
 Vibration     3          0.671              1.737              1.627
 Vibration     4          0.752              1.507              1.028
 Vibration     5          0.762              1.481              0.982
 Vibration     6          0.804              1.374              0.814
 Vibration     7          0.859              1.241              0.648
 Vibration     8          0.908              1.135              0.540
 Vibration     9          0.922              1.104              0.512

 Normal termination of Gaussian 09 at Fri Mar 21 00:28:33 2025.
