 Gaussian 09, Revision D.01,
 Gaussian 09:  ES64L-G09RevD.01 24-Apr-2013

 ---------------------------------
 #m062X/6-31+G(d) OPT Freq=noraman
 ---------------------------------

 ---------------
 2-chloropropane
 ---------------
 Symbolic Z-matrix:
 Charge =  0 Multiplicity = 1

 SCF Done:  E(RM062X) =  -578.641988258     A.U. after   12 cycles
 SCF Done:  E(RM062X) =  -578.642512557     A.U. after   10 cycles
 SCF Done:  E(RM062X) =  -578.642589851     A.U. after    9 cycles
 SCF Done:  E(RM062X) =  -578.642594646     A.U. after    8 cycles
 Optimization completed.
    -- Stationary point found.
 Normal termination of Gaussian 09 at Thu Mar 20 15:49:00 2025.

 ---------------------------------------------------------------------
 #N Geom=AllCheck Guess=TCheck SCRF=Check GenChk RM062X/6-31+G(d) Freq
 ---------------------------------------------------------------------

 Structure from the checkpoint file:  "/srv/scratch/z5358697/gauss/Gau-1714157.chk"
 ---------------
 2-chloropropane
 ---------------
 Charge =  0 Multiplicity = 1

                         Standard orientation:
 ---------------------------------------------------------------------
 Center     Atomic      Atomic             Coordinates (Angstroms)
 Number     Number       Type             X           Y           Z
 ---------------------------------------------------------------------
      1          6           0       -1.059760   -1.265938   -0.120359
      2          6           0       -0.405943   -0.000001    0.406504
      3          6           0       -1.059758    1.265937   -0.120360
      4         17           0        1.349428    0.000000   -0.057329
      5          1           0       -0.563498   -2.159782    0.265138
      6          1           0       -2.110785   -1.287738    0.189137
      7          1           0       -1.018819   -1.288816   -1.213878
      8          1           0       -0.401286    0.000002    1.499090
      9          1           0       -0.563506    2.159782    0.265147
     10          1           0       -2.110788    1.287739    0.189132
     11          1           0       -1.018825    1.288817   -1.213879
 ---------------------------------------------------------------------

 SCF Done:  E(RM062X) =  -578.642594646     A.U. after    1 cycles

 The electronic state is 1-A.
 Alpha  occ. eigenvalues -- -102.64848 -10.61752 -10.55335 -10.55334  -9.79570
 Alpha  occ. eigenvalues --   -7.51948  -7.51313  -7.51311  -0.96559  -0.85373
 Alpha  occ. eigenvalues --   -0.79721  -0.67242  -0.55326  -0.52598  -0.50020
 Alpha  occ. eigenvalues --   -0.46821  -0.43614  -0.42942  -0.41843  -0.35551
 Alpha  occ. eigenvalues --   -0.35547
 Alpha virt. eigenvalues --    0.02364   0.03994   0.04193   0.04933   0.05537
 Alpha virt. eigenvalues --    0.07133   0.08116   0.08959   0.09628   0.11027
 Alpha virt. eigenvalues --    0.12583   0.13480   0.13565   0.13949   0.15174

 Mulliken charges:
               1
     1  C   -0.578396
     2  C   -0.450257
     3  C   -0.578395
     4  Cl  -0.006337
     5  H    0.231130
     6  H    0.214000
     7  H    0.235077
     8  H    0.252972
     9  H    0.231130
    10  H    0.213999
    11  H    0.235077
 Sum of Mulliken charges =   0.00000

 Dipole moment (field-independent basis, Debye):
    X=             -2.3212    Y=              0.0000    Z=              0.4929  Tot=              2.3730
 Quadrupole moment (field-independent basis, Debye-Ang):
   XX=            -34.7128   YY=            -33.0287   ZZ=            -33.0302
   XY=              0.0000   XZ=             -0.3195   YZ=              0.0000

  Exact polarizability:  56.334   0.000  46.034  -1.591   0.000  41.576
 Approx polarizability:  62.239   0.000  47.664  -3.151   0.000  48.573

                      1                      2                      3
                      A                      A                      A
 Frequencies --    225.1227               264.5714               327.6796
 Red. masses --      1.0263                 1.0698                 3.2540
 Frc consts  --      0.0306                 0.0441                 0.2059
 IR Inten    --      0.0377                 0.0791                 1.6338

                      4                      5                      6
                      A                      A                      A
 Frequencies --    342.7410               428.2490               649.4770
 Red. masses --      2.5212                 2.3744                 3.7955
 Frc consts  --      0.1745                 0.2566                 0.9433
 IR Inten    --      1.2192                 1.8846                32.8584

                      7                      8                      9
                      A                      A                      A
 Frequencies --    920.7694               945.6889               964.9471
 Red. masses --      2.4699                 1.1446                 1.4013
 Frc consts  --      1.2338                 0.6031                 0.7688
 IR Inten    --     10.2722                 1.3196                 0.0001

                     10                     11                     12
                      A                      A                      A
 Frequencies --   1095.2463              1168.9897              1198.6042
 Red. masses --      1.3903                 2.0698                 1.9188
 Frc consts  --      0.9826                 1.6665                 1.6242
 IR Inten    --     15.8615                 2.0540                15.1164

                     13                     14                     15
                      A                      A                      A
 Frequencies --   1311.6867              1367.5942              1428.4662
 Red. masses --      1.2238                 1.3639                 1.3627
 Frc consts  --      1.2406                 1.5029                 1.6383
 IR Inten    --     40.0396                 0.6556                14.7244

                     16                     17                     18
                      A                      A                      A
 Frequencies --   1441.1494              1503.1293              1505.9200
 Red. masses --      1.2493                 1.0474                 1.0453
 Frc consts  --      1.5287                 1.3943                 1.3966
 IR Inten    --      8.7973                 2.3483                 0.8977

                     19                     20                     21
                      A                      A                      A
 Frequencies --   1515.9937              1527.2147              3075.8289
 Red. masses --      1.0438                 1.0458                 1.0355
 Frc consts  --      1.4134                 1.4371                 5.7717
 IR Inten    --      9.6347                 9.8342                12.9647

                     22                     23                     24
                      A                      A                      A
 Frequencies --   3079.4026              3129.2084              3150.7969
 Red. masses --      1.0359                 1.0887                 1.1026
 Frc consts  --      5.7874                 6.2812                 6.4492
 IR Inten    --     17.3683                 1.7033                 0.5395

                     25                     26                     27
                      A                      A                      A
 Frequencies --   3158.1542              3168.6574              3171.8109
 Red. masses --      1.1008                 1.1035                 1.1027
 Frc consts  --      6.4686                 6.5279                 6.5362
 IR Inten    --     34.7020                10.1879                20.2569

 - Thermochemistry -
 -------------------
 Temperature   298.150 Kelvin.  Pressure   1.00000 Atm.
 Atom     1 has atomic number  6 and mass  12.00000

 Molecular mass:    78.02363 amu.
 Principal axes and moments of inertia in atomic units:
                           1         2         3
     Eigenvalues --   222.98485 397.57283 564.22858
           X            0.99996   0.00000   0.00878
           Y            0.00000   1.00000   0.00000
           Z           -0.00878   0.00000   0.99996
 This molecule is an asymmetric top.
 Rotational symmetry number  1.
 Rotational temperatures (Kelvin)      0.38843     0.21786     0.15351
 Rotational constants (GHZ):           8.09356     4.53940     3.19860
 Zero-point vibrational energy     251617.1 (Joules/Mol)
                                   60.13794 (Kcal/Mol)
 Warning -- explicit consideration of   5 degrees of freedom as
           vibrations may cause significant error
 Vibrational temperatures:    323.90   380.66   471.46   493.13   616.15
          (Kelvin)            934.45  1324.78  1360.63  1388.34  1575.81
                             1681.91  1724.52  1887.22  1967.66  2055.24
                             2073.49  2162.67  2166.68  2181.17  2197.32
                             4425.43  4430.57  4502.23  4533.29  4543.87
                             4558.99  4563.52

 Zero-point correction=                           0.095836 (Hartree/Particle)
 Thermal correction to Energy=                    0.101080
 Thermal correction to Enthalpy=                  0.102024
 Thermal correction to Gibbs Free Energy=         0.067682
 Sum of electronic and zero-point Energies=           -578.546759
 Sum of electronic and thermal Energies=              -578.541514
 Sum of electronic and thermal Enthalpies=            -578.540570
 Sum of electronic and thermal Free Energies=         -578.574912

                     E (Thermal)             CV                S
                      KCal/Mol        Cal/Mol-Kelvin    Cal/Mol-Kelvin
 Total                   63.429             17.832             72.279
 Electronic               0.000              0.000              0.000
 Translational            0.889              2.981             38.978
 Rotational               0.889              2.981             25.417
 Vibrational             61.651             11.870              7.883
 Vibration     1          0.650              1.803              1.918
 Vibration     2          0.671              1.738              1.631
 Vibration     3          0.711              1.620              1.272
 Vibration     4          0.722              1.590              1.199
 Vibration     5          0.790              1.409              0.864

 Normal termination of Gaussian 09 at Thu Mar 20 15:50:15 2025.
