 Gaussian 09, Revision D.01,
 Gaussian 09:  ES64L-G09RevD.01 24-Apr-2013

 ---------------------------------
 #m062X/6-31+G(d) OPT Freq=noraman
 ---------------------------------

 ----------
 neopentane
 ----------
 Symbolic Z-matrix:
 Charge =  0 Multiplicity = 1

 SCF Done:  E(RM062X) =  -197.660572790     A.U. after    9 cycles
 SCF Done:  E(RM062X) =  -197.660631729     A.U. after    8 cycles
 SCF Done:  E(RM062X) =  -197.660696515     A.U. after    8 cycles
 SCF Done:  E(RM062X) =  -197.660610610     A.U. after    7 cycles
 SCF Done:  E(RM062X) =  -197.660641059     A.U. after    7 cycles
 Optimization completed.
    -- Stationary point found.
 Normal termination of Gaussian 09 at Tue Mar 18 10:15:15 2025.

 ---------------------------------------------------------------------
 #N Geom=AllCheck Guess=TCheck SCRF=Check GenChk RM062X/6-31+G(d) Freq
 ---------------------------------------------------------------------

 Structure from the checkpoint file:  "/srv/scratch/z5358697/gauss/Gau-2317532.chk"
 ----------
 neopentane
 ----------
 Charge =  0 Multiplicity = 1

                         Standard orientation:
 ---------------------------------------------------------------------
 Center     Atomic      Atomic             Coordinates (Angstroms)
 Number     Number       Type             X           Y           Z
 ---------------------------------------------------------------------
      1          6           0       -0.677249   -1.227922    0.617673
      2          6           0        0.000043    0.000013    0.000059
      3          6           0       -0.750042    1.266030    0.427515
      4          6           0       -0.025212   -0.117220   -1.527450
      5          6           0        1.452458    0.079149    0.482252
      6          1           0       -0.158874   -2.149498    0.326933
      7          1           0       -0.673355   -1.169577    1.712769
      8          1           0       -1.719959   -1.308514    0.287770
      9          1           0       -0.286093    2.161511   -0.003156
     10          1           0       -0.745844    1.375154    1.518706
     11          1           0       -1.794735    1.234093    0.095491
     12          1           0        0.453326    0.751289   -1.995650
     13          1           0        0.506644   -1.016388   -1.860847
     14          1           0       -1.055152   -0.176746   -1.899348
     15          1           0        1.961003    0.951633    0.054687
     16          1           0        2.013206   -0.816023    0.187656
     17          1           0        1.499843    0.162772    1.574694
 ---------------------------------------------------------------------

 SCF Done:  E(RM062X) =  -197.660641059     A.U. after    1 cycles

 The electronic state is 1-A.
 Alpha  occ. eigenvalues --  -10.55509 -10.53204 -10.53203 -10.53202 -10.53200
 Alpha  occ. eigenvalues --   -0.92321  -0.77439  -0.77438  -0.77437  -0.60974
 Alpha  occ. eigenvalues --   -0.51721  -0.51718  -0.51713  -0.46554  -0.46551
 Alpha  occ. eigenvalues --   -0.42482  -0.42481  -0.42480  -0.37728  -0.37726
 Alpha  occ. eigenvalues --   -0.37725
 Alpha virt. eigenvalues --    0.02551   0.04078   0.04079   0.04079   0.07100
 Alpha virt. eigenvalues --    0.07101   0.07102   0.07861   0.08616   0.08617
 Alpha virt. eigenvalues --    0.12175   0.12175   0.12175   0.12284   0.12285

 Mulliken charges:
               1
     1  C   -0.408361
     2  C   -0.959871
     3  C   -0.408390
     4  C   -0.408015
     5  C   -0.408519
     6  H    0.216129
     7  H    0.216103
     8  H    0.216075
     9  H    0.216072
    10  H    0.216076
    11  H    0.216107
    12  H    0.216092
    13  H    0.216116
    14  H    0.216094
    15  H    0.216099
    16  H    0.216095
    17  H    0.216098
 Sum of Mulliken charges =   0.00000

 Dipole moment (field-independent basis, Debye):
    X=              0.0001    Y=             -0.0003    Z=             -0.0002  Tot=              0.0003
 Quadrupole moment (field-independent basis, Debye-Ang):
   XX=            -35.9949   YY=            -35.9970   ZZ=            -35.9973
   XY=              0.0005   XZ=              0.0001   YZ=             -0.0001

  Exact polarizability:  60.151   0.011  60.273  -0.021   0.051  60.321
 Approx polarizability:  66.550   0.000  66.543   0.000  -0.001  66.545

                      1                      2                      3
                      A                      A                      A
 Frequencies --    191.8868               276.6264               285.7467
 Red. masses --      1.0082                 1.0305                 1.0315
 Frc consts  --      0.0219                 0.0465                 0.0496
 IR Inten    --      0.0001                 0.0028                 0.0013

                      4                      5                      6
                      A                      A                      A
 Frequencies --    291.5172               334.0365               336.8822
 Red. masses --      1.0311                 2.1787                 2.1819
 Frc consts  --      0.0516                 0.1432                 0.1459
 IR Inten    --      0.0021                 0.0003                 0.0003

                      7                      8                      9
                      A                      A                      A
 Frequencies --    418.7440               421.1973               422.4145
 Red. masses --      2.0985                 2.1036                 2.1042
 Frc consts  --      0.2168                 0.2199                 0.2212
 IR Inten    --      0.1468                 0.1611                 0.1427

                     10                     11                     12
                      A                      A                      A
 Frequencies --    752.6035               952.0729               953.7256
 Red. masses --      3.4156                 1.8678                 1.8542
 Frc consts  --      1.1399                 0.9975                 0.9937
 IR Inten    --      0.0001                 0.3939                 0.3629

                     13                     14                     15
                      A                      A                      A
 Frequencies --    954.6031               963.0332               963.7633
 Red. masses --      1.8546                 1.2077                 1.2088
 Frc consts  --      0.9957                 0.6599                 0.6615
 IR Inten    --      0.3772                 0.0026                 0.0089

                     16                     17                     18
                      A                      A                      A
 Frequencies --    964.9147              1092.0264              1092.7228
 Red. masses --      1.2071                 1.3633                 1.3619
 Frc consts  --      0.6622                 0.9579                 0.9581
 IR Inten    --      0.0172                 0.0010                 0.0001

                     19                     20                     21
                      A                      A                      A
 Frequencies --   1297.8469              1298.8934              1299.9130
 Red. masses --      2.6336                 2.6443                 2.6384
 Frc consts  --      2.6137                 2.6285                 2.6268
 IR Inten    --      2.6310                 2.5269                 2.5729

                     22                     23                     24
                      A                      A                      A
 Frequencies --   1418.0588              1418.7423              1419.6703
 Red. masses --      1.2910                 1.2942                 1.2911
 Frc consts  --      1.5296                 1.5349                 1.5331
 IR Inten    --     12.2762                12.2767                12.4667

                     25                     26                     27
                      A                      A                      A
 Frequencies --   1457.0891              1502.7956              1503.9444
 Red. masses --      1.2344                 1.0474                 1.0477
 Frc consts  --      1.5441                 1.3937                 1.3962
 IR Inten    --      0.0085                 0.0161                 0.0169

                     28                     29                     30
                      A                      A                      A
 Frequencies --   1504.6998              1511.0960              1512.8074
 Red. masses --      1.0474                 1.0416                 1.0416
 Frc consts  --      1.3972                 1.4013                 1.4045
 IR Inten    --      0.0583                 0.0012                 0.0034

                     31                     32                     33
                      A                      A                      A
 Frequencies --   1540.2080              1541.3086              1541.7756
 Red. masses --      1.0675                 1.0678                 1.0661
 Frc consts  --      1.4920                 1.4946                 1.4931
 IR Inten    --     13.7456                13.4477                14.0365

                     34                     35                     36
                      A                      A                      A
 Frequencies --   3053.3436              3054.1956              3055.4052
 Red. masses --      1.0347                 1.0347                 1.0347
 Frc consts  --      5.6832                 5.6865                 5.6913
 IR Inten    --     42.3511                41.1746                41.2032

                     37                     38                     39
                      A                      A                      A
 Frequencies --   3063.4168              3127.6052              3127.9988
 Red. masses --      1.0364                 1.1027                 1.1029
 Frc consts  --      5.7303                 6.3551                 6.3582
 IR Inten    --      0.5697                 0.9191                 1.8143

                     40                     41                     42
                      A                      A                      A
 Frequencies --   3128.9755              3129.5612              3130.5718
 Red. masses --      1.1025                 1.1022                 1.1025
 Frc consts  --      6.3594                 6.3602                 6.3659
 IR Inten    --      2.8791                 5.6387                 7.4356

                     43                     44                     45
                      A                      A                      A
 Frequencies --   3133.9519              3134.6879              3135.8581
 Red. masses --      1.1013                 1.1012                 1.1012
 Frc consts  --      6.3727                 6.3752                 6.3803
 IR Inten    --     74.7666                78.6428                73.6656

 - Thermochemistry -
 -------------------
 Temperature   298.150 Kelvin.  Pressure   1.00000 Atm.
 Atom     1 has atomic number  6 and mass  12.00000

 Molecular mass:    72.09390 amu.
 Principal axes and moments of inertia in atomic units:
                           1         2         3
     Eigenvalues --   405.12858 405.18891 405.23084
           X            0.99983   0.01811   0.00228
           Y           -0.01810   0.99982  -0.00542
           Z           -0.00238   0.00537   0.99998
 This molecule is an asymmetric top.
 Rotational symmetry number  1.
 Rotational temperatures (Kelvin)      0.21379     0.21376     0.21374
 Rotational constants (GHZ):           4.45474     4.45407     4.45361
 Zero-point vibrational energy     422957.3 (Joules/Mol)
                                  101.08922 (Kcal/Mol)
 Warning -- explicit consideration of   9 degrees of freedom as
           vibrations may cause significant error
 Vibrational temperatures:    276.08   398.00   411.13   419.43   480.60
          (Kelvin)            484.70   602.48   606.01   607.76  1082.83
                             1369.82  1372.20  1373.46  1385.59  1386.64
                             1388.30  1571.18  1572.18  1867.31  1868.82
                             1870.28  2040.27  2041.25  2042.59  2096.42
                             2162.18  2163.84  2164.92  2174.13  2176.59
                             2216.01  2217.60  2218.27  4393.07  4394.30
                             4396.04  4407.57  4499.92  4500.49  4501.89
                             4502.73  4504.19  4509.05  4510.11  4511.79

 Zero-point correction=                           0.161096 (Hartree/Particle)
 Thermal correction to Energy=                    0.167946
 Thermal correction to Enthalpy=                  0.168890
 Thermal correction to Gibbs Free Energy=         0.132029
 Sum of electronic and zero-point Energies=           -197.499545
 Sum of electronic and thermal Energies=              -197.492695
 Sum of electronic and thermal Enthalpies=            -197.491751
 Sum of electronic and thermal Free Energies=         -197.528612

                     E (Thermal)             CV                S
                      KCal/Mol        Cal/Mol-Kelvin    Cal/Mol-Kelvin
 Total                  105.388             25.649             77.581
 Electronic               0.000              0.000              0.000
 Translational            0.889              2.981             38.743
 Rotational               0.889              2.981             25.701
 Vibrational            103.610             19.688             13.138
 Vibration     1          0.634              1.851              2.210
 Vibration     2          0.678              1.717              1.554
 Vibration     3          0.684              1.700              1.499
 Vibration     4          0.687              1.690              1.465
 Vibration     5          0.716              1.608              1.240
 Vibration     6          0.718              1.602              1.227
 Vibration     7          0.782              1.430              0.896
 Vibration     8          0.784              1.424              0.888
 Vibration     9          0.785              1.422              0.884

 Normal termination of Gaussian 09 at Tue Mar 18 10:18:49 2025.
