 Gaussian 09, Revision D.01,
 Gaussian 09:  ES64L-G09RevD.01 24-Apr-2013

 ---------------------------------
 #m062X/6-31+G(d) OPT Freq=noraman
 ---------------------------------

 ----------
 morpholine
 ----------
 Symbolic Z-matrix:
 Charge =  0 Multiplicity = 1

 SCF Done:  E(RM062X) =  -287.669924784     A.U. after   12 cycles
 SCF Done:  E(RM062X) =  -287.671972141     A.U. after   11 cycles
 SCF Done:  E(RM062X) =  -287.672172981     A.U. after   10 cycles
 SCF Done:  E(RM062X) =  -287.672200978     A.U. after    9 cycles
 SCF Done:  E(RM062X) =  -287.672202426     A.U. after    8 cycles
 Optimization completed.
    -- Stationary point found.
 Normal termination of Gaussian 09 at Mon Mar 17 18:49:25 2025.

 ---------------------------------------------------------------------
 #N Geom=AllCheck Guess=TCheck SCRF=Check GenChk RM062X/6-31+G(d) Freq
 ---------------------------------------------------------------------

 Structure from the checkpoint file:  "/srv/scratch/z5358697/gauss/Gau-4053264.chk"
 ----------
 morpholine
 ----------
 Charge =  0 Multiplicity = 1

                         Standard orientation:
 ---------------------------------------------------------------------
 Center     Atomic      Atomic             Coordinates (Angstroms)
 Number     Number       Type             X           Y           Z
 ---------------------------------------------------------------------
      1          6           0        1.199105    0.715017   -0.202100
      2          6           0        1.168799   -0.753609    0.197836
      3          8           0       -0.000051   -1.386910   -0.289947
      4          6           0       -1.168855   -0.753525    0.197836
      5          6           0       -1.199053    0.715106   -0.202101
      6          7           0        0.000050    1.359438    0.327496
      7          1           0        1.259679    0.778265   -1.303563
      8          1           0        2.085728    1.196058    0.224023
      9          1           0        2.015899   -1.295920   -0.229779
     10          1           0        1.203434   -0.833496    1.295844
     11          1           0       -2.015993   -1.295772   -0.229783
     12          1           0       -1.203497   -0.833412    1.295844
     13          1           0       -1.259618    0.778353   -1.303563
     14          1           0       -2.085639    1.196209    0.224027
     15          1           0        0.000087    2.350991    0.105231
 ---------------------------------------------------------------------

 SCF Done:  E(RM062X) =  -287.672202426     A.U. after    1 cycles

 The electronic state is 1-A.
 Alpha  occ. eigenvalues --  -19.64522 -14.75474 -10.59028 -10.59026 -10.57193
 Alpha  occ. eigenvalues --  -10.57191  -1.16283  -1.01662  -0.87125  -0.77732
 Alpha  occ. eigenvalues --   -0.73855  -0.65276  -0.60309  -0.54565  -0.53879
 Alpha  occ. eigenvalues --   -0.51807  -0.50560  -0.49085  -0.45907  -0.41914
 Alpha  occ. eigenvalues --   -0.41282  -0.37302  -0.32851  -0.29386
 Alpha virt. eigenvalues --    0.01650   0.03544   0.03674   0.04591   0.05392
 Alpha virt. eigenvalues --    0.06007   0.07291   0.07826   0.09392   0.09795
 Alpha virt. eigenvalues --    0.09943   0.11751   0.13522   0.13613   0.15223

 Mulliken charges:
               1
     1  C   -0.337993
     2  C   -0.196236
     3  O   -0.366906
     4  C   -0.196238
     5  C   -0.337989
     6  N   -0.570810
     7  H    0.199498
     8  H    0.204623
     9  H    0.204100
    10  H    0.200529
    11  H    0.204100
    12  H    0.200530
    13  H    0.199498
    14  H    0.204623
    15  H    0.388671
 Sum of Mulliken charges =   0.00000

 Dipole moment (field-independent basis, Debye):
    X=              0.0001    Y=              1.6500    Z=             -0.2414  Tot=              1.6676
 Quadrupole moment (field-independent basis, Debye-Ang):
   XX=            -33.3612   YY=            -38.7104   ZZ=            -40.4349
   XY=             -0.0002   XZ=             -0.0001   YZ=             -2.9792

  Exact polarizability:  62.150   0.000  54.522   0.000  -0.159  53.423
 Approx polarizability:  65.599   0.000  60.185   0.000   1.424  63.845

                      1                      2                      3
                      A                      A                      A
 Frequencies --    271.5169               280.0421               430.9848
 Red. masses --      1.7596                 2.4825                 2.0344
 Frc consts  --      0.0764                 0.1147                 0.2226
 IR Inten    --      1.3467                11.9982                 0.1214

                      4                      5                      6
                      A                      A                      A
 Frequencies --    451.1177               485.2723               596.8844
 Red. masses --      3.9123                 2.7791                 1.5433
 Frc consts  --      0.4691                 0.3856                 0.3240
 IR Inten    --      8.0265                 1.2879                31.6043

                      7                      8                      9
                      A                      A                      A
 Frequencies --    819.8794               873.7333               876.4653
 Red. masses --      1.4709                 3.2980                 1.5201
 Frc consts  --      0.5825                 1.4834                 0.6880
 IR Inten    --    113.1359                 2.9052                 0.0699

                     10                     11                     12
                      A                      A                      A
 Frequencies --    919.0336               953.2128              1062.4236
 Red. masses --      2.1844                 2.3698                 1.9333
 Frc consts  --      1.0870                 1.2686                 1.2857
 IR Inten    --      5.7680                24.6824                 7.3867

                     13                     14                     15
                      A                      A                      A
 Frequencies --   1097.1233              1101.3143              1159.1468
 Red. masses --      2.1227                 1.6884                 2.2180
 Frc consts  --      1.5054                 1.2066                 1.7559
 IR Inten    --     11.9152                 0.0323                 1.9637

                     16                     17                     18
                      A                      A                      A
 Frequencies --   1177.7731              1204.4724              1241.6638
 Red. masses --      2.1637                 3.3552                 1.1228
 Frc consts  --      1.7683                 2.8679                 1.0199
 IR Inten    --     34.0483                77.1120                11.4738

                     19                     20                     21
                      A                      A                      A
 Frequencies --   1277.3798              1316.4668              1351.1407
 Red. masses --      1.4994                 1.2470                 1.1792
 Frc consts  --      1.4415                 1.2734                 1.2684
 IR Inten    --     20.7699                 8.5775                 4.2188

                     22                     23                     24
                      A                      A                      A
 Frequencies --   1366.5596              1395.1290              1425.9849
 Red. masses --      1.3785                 1.2601                 1.3885
 Frc consts  --      1.5167                 1.4450                 1.6635
 IR Inten    --     28.8242                32.2509                 3.6880

                     25                     26                     27
                      A                      A                      A
 Frequencies --   1453.2343              1497.7384              1503.0390
 Red. masses --      1.6173                 1.1610                 1.0848
 Frc consts  --      2.0124                 1.5345                 1.4439
 IR Inten    --      3.1477                 1.6895                 0.8059

                     28                     29                     30
                      A                      A                      A
 Frequencies --   1514.1376              1515.2615              1522.4648
 Red. masses --      1.2597                 1.1089                 1.1098
 Frc consts  --      1.7016                 1.5000                 1.5156
 IR Inten    --      0.4329                14.1782                 0.2400

                     31                     32                     33
                      A                      A                      A
 Frequencies --   3002.0248              3003.7347              3047.7235
 Red. masses --      1.0708                 1.0700                 1.0676
 Frc consts  --      5.6856                 5.6877                 5.8426
 IR Inten    --     38.5692                99.5031                17.7060

                     34                     35                     36
                      A                      A                      A
 Frequencies --   3050.4315              3119.3629              3119.5649
 Red. masses --      1.0684                 1.0923                 1.0932
 Frc consts  --      5.8574                 6.2621                 6.2683
 IR Inten    --     95.2594                44.1261                22.8622

                     37                     38                     39
                      A                      A                      A
 Frequencies --   3154.7710              3156.1560              3560.4885
 Red. masses --      1.0963                 1.0973                 1.0755
 Frc consts  --      6.4289                 6.4402                 8.0333
 IR Inten    --     40.4590                23.2826                 1.4806

 - Thermochemistry -
 -------------------
 Temperature   298.150 Kelvin.  Pressure   1.00000 Atm.
 Atom     1 has atomic number  6 and mass  12.00000

 Molecular mass:    87.06841 amu.
 Principal axes and moments of inertia in atomic units:
                           1         2         3
     Eigenvalues --   364.51967 388.36655 669.29712
           X            0.00004   1.00000   0.00000
           Y            0.99947  -0.00004  -0.03266
           Z            0.03266   0.00000   0.99947
 This molecule is an asymmetric top.
 Rotational symmetry number  1.
 Rotational temperatures (Kelvin)      0.23761     0.22302     0.12941
 Rotational constants (GHZ):           4.95101     4.64700     2.69647
 Zero-point vibrational energy     361002.2 (Joules/Mol)
                                   86.28159 (Kcal/Mol)
 Warning -- explicit consideration of   6 degrees of freedom as
           vibrations may cause significant error
 Vibrational temperatures:    390.65   402.92   620.09   649.06   698.20
          (Kelvin)            858.78  1179.62  1257.11  1261.04  1322.28
                             1371.46  1528.59  1578.51  1584.54  1667.75
                             1694.55  1732.97  1786.48  1837.86  1894.10
                             1943.99  1966.17  2007.28  2051.67  2090.88
                             2154.91  2162.54  2178.50  2180.12  2190.48
                             4319.24  4321.70  4384.99  4388.89  4488.06
                             4488.35  4539.01  4541.00  5122.74

 Zero-point correction=                           0.137498 (Hartree/Particle)
 Thermal correction to Energy=                    0.142691
 Thermal correction to Enthalpy=                  0.143636
 Thermal correction to Gibbs Free Energy=         0.109146
 Sum of electronic and zero-point Energies=           -287.534704
 Sum of electronic and thermal Energies=              -287.529511
 Sum of electronic and thermal Enthalpies=            -287.528567
 Sum of electronic and thermal Free Energies=         -287.563056

                     E (Thermal)             CV                S
                      KCal/Mol        Cal/Mol-Kelvin    Cal/Mol-Kelvin
 Total                   89.540             19.982             72.589
 Electronic               0.000              0.000              0.000
 Translational            0.889              2.981             39.305
 Rotational               0.889              2.981             26.052
 Vibrational             87.763             14.020              7.232
 Vibration     1          0.675              1.726              1.587
 Vibration     2          0.680              1.711              1.533
 Vibration     3          0.792              1.403              0.855
 Vibration     4          0.810              1.358              0.792
 Vibration     5          0.841              1.283              0.696
 Vibration     6          0.955              1.038              0.455

 Optimization completed.
    -- Stationary point found.
 Normal termination of Gaussian 09 at Mon Mar 17 18:53:07 2025.
