 Gaussian 09, Revision D.01,
 Gaussian 09:  ES64L-G09RevD.01 24-Apr-2013

 ---------------------------------
 #m062X/6-31+G(d) OPT Freq=noraman
 ---------------------------------

 ---------------------
 methylsulfonylmethane
 ---------------------
 Symbolic Z-matrix:
 Charge =  0 Multiplicity = 1

 SCF Done:  E(RM062X) =  -628.263835403     A.U. after   12 cycles
 SCF Done:  E(RM062X) =  -628.264852800     A.U. after   11 cycles
 SCF Done:  E(RM062X) =  -628.264959571     A.U. after   10 cycles
 SCF Done:  E(RM062X) =  -628.264985928     A.U. after   10 cycles
 SCF Done:  E(RM062X) =  -628.264991497     A.U. after    9 cycles
 SCF Done:  E(RM062X) =  -628.264993136     A.U. after    8 cycles
 SCF Done:  E(RM062X) =  -628.264993301     A.U. after    7 cycles
 Optimization completed.
    -- Stationary point found.
 Normal termination of Gaussian 09 at Thu Mar 20 23:03:41 2025.

 ---------------------------------------------------------------------
 #N Geom=AllCheck Guess=TCheck SCRF=Check GenChk RM062X/6-31+G(d) Freq
 ---------------------------------------------------------------------

 Structure from the checkpoint file:  "/srv/scratch/z5358697/gauss/Gau-3809829.chk"
 ---------------------
 methylsulfonylmethane
 ---------------------
 Charge =  0 Multiplicity = 1

                         Standard orientation:
 ---------------------------------------------------------------------
 Center     Atomic      Atomic             Coordinates (Angstroms)
 Number     Number       Type             X           Y           Z
 ---------------------------------------------------------------------
      1          6           0       -1.407570    0.914343    0.000174
      2         16           0        0.000008   -0.189231   -0.000004
      3          8           0       -0.000012   -0.912159   -1.270019
      4          8           0        0.000469   -0.912136    1.270038
      5          6           0        1.407193    0.914860   -0.000201
      6          1           0       -1.386880    1.525751    0.903701
      7          1           0       -1.387298    1.525308   -0.903667
      8          1           0       -2.290505    0.271481    0.000564
      9          1           0        2.290348    0.272314    0.001179
     10          1           0        1.387013    1.525038   -0.904546
     11          1           0        1.385796    1.526947    0.902838
 ---------------------------------------------------------------------

 SCF Done:  E(RM062X) =  -628.264993301     A.U. after    1 cycles

 The electronic state is 1-A.
 Alpha  occ. eigenvalues --  -90.14913 -19.64036 -19.64035 -10.59621 -10.59619
 Alpha  occ. eigenvalues --   -8.46327  -6.38473  -6.38426  -6.38423  -1.23262
 Alpha  occ. eigenvalues --   -1.12416  -0.90569  -0.85134  -0.69337  -0.58932
 Alpha  occ. eigenvalues --   -0.57529  -0.56652  -0.52369  -0.52040  -0.50169
 Alpha  occ. eigenvalues --   -0.49265  -0.40519  -0.39730  -0.37621  -0.36209
 Alpha virt. eigenvalues --    0.00366   0.02781   0.04433   0.04604   0.05191
 Alpha virt. eigenvalues --    0.06466   0.07407   0.07529   0.07673   0.09423
 Alpha virt. eigenvalues --    0.10845   0.13788   0.14320   0.15867   0.15918

 Mulliken charges:
               1
     1  C   -0.751329
     2  S    0.985909
     3  O   -0.542598
     4  O   -0.542567
     5  C   -0.751317
     6  H    0.258853
     7  H    0.258880
     8  H    0.283229
     9  H    0.283230
    10  H    0.258894
    11  H    0.258815
 Sum of Mulliken charges =   0.00000

 Dipole moment (field-independent basis, Debye):
    X=             -0.0015    Y=              4.9652    Z=              0.0000  Tot=              4.9652
 Quadrupole moment (field-independent basis, Debye-Ang):
   XX=            -31.8757   YY=            -39.0520   ZZ=            -44.2968
   XY=              0.0010   XZ=             -0.0018   YZ=             -0.0002

  Exact polarizability:  51.213   0.000  48.324   0.001   0.001  48.720
 Approx polarizability:  53.527  -0.002  55.971   0.003   0.000  62.974

                      1                      2                      3
                      A                      A                      A
 Frequencies --    209.3190               240.4051               269.3349
 Red. masses --      1.0338                 1.0457                 2.5814
 Frc consts  --      0.0267                 0.0356                 0.1103
 IR Inten    --      0.0000                 0.4565                 2.3938

                      4                      5                      6
                      A                      A                      A
 Frequencies --    293.6465               357.3215               449.3913
 Red. masses --      3.8537                 3.0540                 4.4160
 Frc consts  --      0.1958                 0.2297                 0.5254
 IR Inten    --      0.0000                 1.2629                44.7205

                      7                      8                      9
                      A                      A                      A
 Frequencies --    482.5669               702.2250               770.8265
 Red. masses --      8.5808                 4.3886                 2.7300
 Frc consts  --      1.1773                 1.2751                 0.9557
 IR Inten    --     30.7995                 8.6189                39.5686

                     10                     11                     12
                      A                      A                      A
 Frequencies --    953.8559               969.8184              1013.8935
 Red. masses --      1.2572                 1.7152                 1.4257
 Frc consts  --      0.6740                 0.9505                 0.8635
 IR Inten    --      0.0003                66.9526                 0.6590

                     13                     14                     15
                      A                      A                      A
 Frequencies --   1029.7220              1167.1831              1352.1789
 Red. masses --      1.5053                 7.7345                14.2109
 Frc consts  --      0.9404                 6.2082                15.3087
 IR Inten    --      0.3004               189.7851               284.3836

                     16                     17                     18
                      A                      A                      A
 Frequencies --   1364.5554              1384.4062              1472.8935
 Red. masses --      1.2356                 1.2342                 1.0513
 Frc consts  --      1.3556                 1.3936                 1.3438
 IR Inten    --     14.4853                17.8407                 7.4911

                     19                     20                     21
                      A                      A                      A
 Frequencies --   1477.5296              1482.8718              1493.7430
 Red. masses --      1.0490                 1.0454                 1.0500
 Frc consts  --      1.3492                 1.3543                 1.3803
 IR Inten    --      0.0000                 3.9821                12.1915

                     22                     23                     24
                      A                      A                      A
 Frequencies --   3107.9883              3110.0795              3212.5704
 Red. masses --      1.0300                 1.0301                 1.1052
 Frc consts  --      5.8618                 5.8704                 6.7206
 IR Inten    --      0.1692                 1.0962                 1.8313

                     25                     26                     27
                      A                      A                      A
 Frequencies --   3213.4026              3219.1377              3222.6278
 Red. masses --      1.1060                 1.1085                 1.1084
 Frc consts  --      6.7290                 6.7680                 6.7819
 IR Inten    --      0.0278                 0.0000                 0.1660

 - Thermochemistry -
 -------------------
 Temperature   298.150 Kelvin.  Pressure   1.00000 Atm.
 Atom     1 has atomic number  6 and mass  12.00000

 Molecular mass:    94.00885 amu.
 Principal axes and moments of inertia in atomic units:
                           1         2         3
     Eigenvalues --   399.24749 431.22353 438.43341
           X            1.00000   0.00011  -0.00016
           Y           -0.00011   1.00000   0.00002
           Z            0.00016  -0.00002   1.00000
 This molecule is an asymmetric top.
 Rotational symmetry number  1.
 Rotational temperatures (Kelvin)      0.21694     0.20086     0.19755
 Rotational constants (GHZ):           4.52036     4.18516     4.11634
 Zero-point vibrational energy     227431.0 (Joules/Mol)
                                   54.35731 (Kcal/Mol)
 Warning -- explicit consideration of   7 degrees of freedom as
           vibrations may cause significant error
 Vibrational temperatures:    301.16   345.89   387.51   422.49   514.11
          (Kelvin)            646.57   694.31  1010.34  1109.05  1372.38
                             1395.35  1458.76  1481.54  1679.31  1945.48
                             1963.29  1991.85  2119.16  2125.83  2133.52
                             2149.16  4471.70  4474.71  4622.17  4623.36
                             4631.62  4636.64

 Zero-point correction=                           0.086624 (Hartree/Particle)
 Thermal correction to Energy=                    0.092664
 Thermal correction to Enthalpy=                  0.093608
 Thermal correction to Gibbs Free Energy=         0.057506
 Sum of electronic and zero-point Energies=           -628.178369
 Sum of electronic and thermal Energies=              -628.172329
 Sum of electronic and thermal Enthalpies=            -628.171385
 Sum of electronic and thermal Free Energies=         -628.207487

                     E (Thermal)             CV                S
                      KCal/Mol        Cal/Mol-Kelvin    Cal/Mol-Kelvin
 Total                   58.147             21.171             75.983
 Electronic               0.000              0.000              0.000
 Translational            0.889              2.981             39.534
 Rotational               0.889              2.981             25.826
 Vibrational             56.370             15.209             10.623
 Vibration     1          0.642              1.827              2.050
 Vibration     2          0.657              1.779              1.800
 Vibration     3          0.674              1.730              1.600
 Vibration     4          0.688              1.686              1.453
 Vibration     5          0.732              1.560              1.134
 Vibration     6          0.808              1.362              0.798
 Vibration     7          0.839              1.289              0.703

 Normal termination of Gaussian 09 at Thu Mar 20 23:05:20 2025.
