 Gaussian 09, Revision D.01,
 Gaussian 09:  ES64L-G09RevD.01 24-Apr-2013

 ---------------------------------
 #m062X/6-31+G(d) OPT Freq=noraman
 ---------------------------------

 --------------
 methyl formate
 --------------
 Symbolic Z-matrix:
 Charge =  0 Multiplicity = 1

 SCF Done:  E(RM062X) =  -228.969876141     A.U. after   12 cycles
 SCF Done:  E(RM062X) =  -228.971902591     A.U. after   11 cycles
 SCF Done:  E(RM062X) =  -228.972026816     A.U. after   11 cycles
 SCF Done:  E(RM062X) =  -228.972031392     A.U. after    9 cycles
 Optimization completed.
    -- Stationary point found.

 1\1\GINC-KATANA1\FOpt\RM062X\6-31+G(d)\C2H4O2\Z5358697\18-Mar-2025\0\\
 #m062X/6-31+G(d) OPT Freq=noraman\\methyl formate\\0,1\C,0.3376748015,
 -1.0253114124,0.0533670757\O,1.5735139319,-1.1901017319,-0.6498737041\
 C,1.5197459637,-0.9409039499,-1.9604373081\O,0.5369601071,-0.599716294
 8,-2.5630867119\H,0.5543757434,-1.2687685264,1.0920374423\H,-0.4187553
 392,-1.6997661654,-0.3541626601\H,-0.0117178931,0.0055089995,-0.039203
 0796\H,2.5103026846,-1.0943409187,-2.4084410542\\Version=ES64L-G09RevD
 .01\State=1-A\HF=-228.9720314\RMSD=5.544e-09\RMSF=1.384e-04\Dipole=0.2

 Normal termination of Gaussian 09 at Tue Mar 18 22:09:26 2025.

 ---------------------------------------------------------------------
 #N Geom=AllCheck Guess=TCheck SCRF=Check GenChk RM062X/6-31+G(d) Freq
 ---------------------------------------------------------------------

 Structure from the checkpoint file:  "/srv/scratch/z5358697/gauss/Gau-2764187.chk"
 --------------
 methyl formate
 --------------
 Charge =  0 Multiplicity = 1

                         Standard orientation:
 ---------------------------------------------------------------------
 Center     Atomic      Atomic             Coordinates (Angstroms)
 Number     Number       Type             X           Y           Z
 ---------------------------------------------------------------------
      1          6           0        1.355569   -0.401400   -0.000085
      2          8           0        0.476855    0.728584    0.000133
      3          6           0       -0.825831    0.436049   -0.000064
      4          8           0       -1.288789   -0.673515    0.000043
      5          1           0        2.363917    0.008819   -0.004551
      6          1           0        1.180736   -1.012493   -0.888430
      7          1           0        1.186829   -1.007632    0.892800
      8          1           0       -1.414436    1.362869   -0.000334
 ---------------------------------------------------------------------

 SCF Done:  E(RM062X) =  -228.972031392     A.U. after    1 cycles

 The electronic state is 1-A.
 Alpha  occ. eigenvalues --  -19.70674 -19.65329 -10.69147 -10.61099  -1.24994
 Alpha  occ. eigenvalues --   -1.15675  -0.84421  -0.69026  -0.62584  -0.57584
 Alpha  occ. eigenvalues --   -0.56801  -0.50320  -0.47651  -0.44348  -0.38691
 Alpha  occ. eigenvalues --   -0.37070
 Alpha virt. eigenvalues --    0.02296   0.02843   0.03536   0.04923   0.05781
 Alpha virt. eigenvalues --    0.05837   0.07956   0.09386   0.13097   0.18835
 Alpha virt. eigenvalues --    0.20121   0.20407   0.23361   0.25102   0.25907

 Mulliken charges:
               1
     1  C   -0.411191
     2  O   -0.301277
     3  C    0.292980
     4  O   -0.437452
     5  H    0.218317
     6  H    0.225710
     7  H    0.225620
     8  H    0.187291
 Sum of Mulliken charges =   0.00000

 Dipole moment (field-independent basis, Debye):
    X=              1.6722    Y=              0.8781    Z=             -0.0010  Tot=              1.8887
 Quadrupole moment (field-independent basis, Debye-Ang):
   XX=            -23.2944   YY=            -24.9555   ZZ=            -23.2727
   XY=             -4.9818   XZ=             -0.0005   YZ=              0.0002

  Exact polarizability:  35.888   0.810  31.720   0.004  -0.005  22.535
 Approx polarizability:  36.733   4.514  38.007   0.004  -0.004  25.399

                      1                      2                      3
                      A                      A                      A
 Frequencies --    133.1310               321.3057               352.9150
 Red. masses --      1.0786                 3.8983                 2.3689
 Frc consts  --      0.0113                 0.2371                 0.1738
 IR Inten    --      0.1024                15.5435                31.9930

                      4                      5                      6
                      A                      A                      A
 Frequencies --    791.1984               990.4394              1058.4868
 Red. masses --      4.9781                 4.6783                 1.6534
 Frc consts  --      1.8360                 2.7039                 1.0914
 IR Inten    --      9.6400                29.8067                 0.1066

                      7                      8                      9
                      A                      A                      A
 Frequencies --   1192.0880              1211.5882              1288.4373
 Red. masses --      1.2833                 1.6032                 5.2198
 Frc consts  --      1.0745                 1.3866                 5.1054
 IR Inten    --      1.6383                35.1936               318.5402

                     10                     11                     12
                      A                      A                      A
 Frequencies --   1410.8755              1489.9618              1509.3608
 Red. masses --      1.1539                 1.1892                 1.0423
 Frc consts  --      1.3534                 1.5555                 1.3990
 IR Inten    --      1.2640                 5.6071                 9.7208

                     13                     14                     15
                      A                      A                      A
 Frequencies --   1518.9535              1863.3690              3108.1700
 Red. masses --      1.0456                 9.3183                 1.0295
 Frc consts  --      1.4213                19.0628                 5.8600
 IR Inten    --     11.8639               363.5358                25.7174

                     16                     17                     18
                      A                      A                      A
 Frequencies --   3137.1048              3190.8429              3219.0768
 Red. masses --      1.0924                 1.1074                 1.1081
 Frc consts  --      6.3341                 6.6428                 6.7655
 IR Inten    --     41.8376                15.2140                 8.9250

 - Thermochemistry -
 -------------------
 Temperature   298.150 Kelvin.  Pressure   1.00000 Atm.
 Atom     1 has atomic number  6 and mass  12.00000

 Molecular mass:    60.02113 amu.
 Principal axes and moments of inertia in atomic units:
                           1         2         3
     Eigenvalues --    89.60369 259.69101 337.87561
           X            0.99589  -0.09052   0.00001
           Y            0.09052   0.99589  -0.00003
           Z            0.00000   0.00003   1.00000
 This molecule is an asymmetric top.
 Rotational symmetry number  1.
 Rotational temperatures (Kelvin)      0.96663     0.33353     0.25635
 Rotational constants (GHZ):          20.14137     6.94957     5.34144
 Zero-point vibrational energy     166205.0 (Joules/Mol)
                                   39.72395 (Kcal/Mol)
 Warning -- explicit consideration of   3 degrees of freedom as
           vibrations may cause significant error
 Vibrational temperatures:    191.55   462.29   507.77  1138.36  1425.02
          (Kelvin)           1522.92  1715.15  1743.20  1853.77  2029.93
                             2143.72  2171.63  2185.43  2680.97  4471.96
                             4513.59  4590.91  4631.53

 Zero-point correction=                           0.063304 (Hartree/Particle)
 Thermal correction to Energy=                    0.067778
 Thermal correction to Enthalpy=                  0.068722
 Thermal correction to Gibbs Free Energy=         0.036564
 Sum of electronic and zero-point Energies=           -228.908727
 Sum of electronic and thermal Energies=              -228.904253
 Sum of electronic and thermal Enthalpies=            -228.903309
 Sum of electronic and thermal Free Energies=         -228.935467

                     E (Thermal)             CV                S
                      KCal/Mol        Cal/Mol-Kelvin    Cal/Mol-Kelvin
 Total                   42.531             13.358             67.683
 Electronic               0.000              0.000              0.000
 Translational            0.889              2.981             38.196
 Rotational               0.889              2.981             23.579
 Vibrational             40.754              7.397              5.907
 Vibration     1          0.613              1.920              2.900
 Vibration     2          0.707              1.633              1.303
 Vibration     3          0.729              1.569              1.153

 1\1\GINC-KATANA1\Freq\RM062X\6-31+G(d)\C2H4O2\Z5358697\18-Mar-2025\0\\
 #N Geom=AllCheck Guess=TCheck SCRF=Check GenChk RM062X/6-31+G(d) Freq\
 \methyl formate\\0,1\C,0.3376748015,-1.0253114124,0.0533670757\O,1.573
 5139319,-1.1901017319,-0.6498737041\C,1.5197459637,-0.9409039499,-1.96
 04373081\O,0.5369601071,-0.5997162948,-2.5630867119\H,0.5543757434,-1.
 2687685264,1.0920374423\H,-0.4187553392,-1.6997661654,-0.3541626601\H,
 -0.0117178931,0.0055089995,-0.0392030796\H,2.5103026846,-1.0943409187,
 -2.4084410542\\Version=ES64L-G09RevD.01\State=1-A\HF=-228.9720314\RMSD

 Normal termination of Gaussian 09 at Tue Mar 18 22:10:03 2025.
