 Gaussian 09, Revision D.01,
 Gaussian 09:  ES64L-G09RevD.01 24-Apr-2013

 ---------------------------------
 #m062X/6-31+G(d) OPT Freq=noraman
 ---------------------------------

 -------------------------------------
 1,1,2,2,3,3,4,4-octafluorocyclobutane
 -------------------------------------
 Symbolic Z-matrix:
 Charge =  0 Multiplicity = 1

 SCF Done:  E(RM062X) =  -950.818289571     A.U. after   11 cycles
 SCF Done:  E(RM062X) =  -950.829215322     A.U. after   10 cycles
 SCF Done:  E(RM062X) =  -950.829915507     A.U. after    9 cycles
 SCF Done:  E(RM062X) =  -950.829856324     A.U. after    8 cycles
 SCF Done:  E(RM062X) =  -950.829796087     A.U. after   10 cycles
 SCF Done:  E(RM062X) =  -950.829917379     A.U. after    9 cycles
 SCF Done:  E(RM062X) =  -950.829885910     A.U. after    8 cycles
 SCF Done:  E(RM062X) =  -950.829888535     A.U. after    8 cycles
 SCF Done:  E(RM062X) =  -950.829955979     A.U. after    7 cycles
 SCF Done:  E(RM062X) =  -950.825868081     A.U. after   10 cycles
 SCF Done:  E(RM062X) =  -950.829955345     A.U. after    4 cycles
 Optimization completed.
    -- Stationary point found.
 Normal termination of Gaussian 09 at Sat Mar 15 13:12:45 2025.

 ---------------------------------------------------------------------
 #N Geom=AllCheck Guess=TCheck SCRF=Check GenChk RM062X/6-31+G(d) Freq
 ---------------------------------------------------------------------

 Structure from the checkpoint file:  "/srv/scratch/z5358697/gauss/Gau-1008089.chk"
 -------------------------------------
 1,1,2,2,3,3,4,4-octafluorocyclobutane
 -------------------------------------
 Charge =  0 Multiplicity = 1

                         Standard orientation:
 ---------------------------------------------------------------------
 Center     Atomic      Atomic             Coordinates (Angstroms)
 Number     Number       Type             X           Y           Z
 ---------------------------------------------------------------------
      1          6           0        0.103366   -1.090022    0.098049
      2          6           0       -1.090023   -0.103367   -0.098048
      3          6           0       -0.103367    1.090022    0.098049
      4          6           0        1.090023    0.103367   -0.098049
      5          9           0        2.083627    0.197967    0.780706
      6          9           0        1.561094    0.147704   -1.350303
      7          9           0       -0.147703    1.561094    1.350302
      8          9           0       -0.197968    2.083627   -0.780706
      9          9           0       -1.561093   -0.147704   -1.350302
     10          9           0       -2.083629   -0.197967    0.780706
     11          9           0        0.197966   -2.083627   -0.780706
     12          9           0        0.147705   -1.561093    1.350302
 ---------------------------------------------------------------------

 SCF Done:  E(RM062X) =  -950.829955345     A.U. after    1 cycles

 The electronic state is 1-A.
 Alpha  occ. eigenvalues --  -25.34050 -25.34050 -25.34050 -25.34050 -25.34024
 Alpha  occ. eigenvalues --  -25.34024 -25.34023 -25.34023 -10.78695 -10.78665
 Alpha  occ. eigenvalues --  -10.78665 -10.78634  -1.49253  -1.47227  -1.47227
 Alpha  occ. eigenvalues --   -1.45878  -1.42335  -1.41188  -1.41188  -1.40393
 Alpha  occ. eigenvalues --   -1.03728  -0.85287  -0.85287  -0.77893  -0.75766
 Alpha  occ. eigenvalues --   -0.74250  -0.74064  -0.71047  -0.71047  -0.69523
 Alpha  occ. eigenvalues --   -0.69523  -0.67564  -0.61492  -0.61492  -0.60990
 Alpha  occ. eigenvalues --   -0.60734  -0.60330  -0.58805  -0.58805  -0.58639
 Alpha  occ. eigenvalues --   -0.57666  -0.56635  -0.55414  -0.55414  -0.55142
 Alpha  occ. eigenvalues --   -0.48145  -0.48145  -0.41736
 Alpha virt. eigenvalues --   -0.00770   0.00211   0.02878   0.02878   0.05524
 Alpha virt. eigenvalues --    0.06625   0.06750   0.07106   0.07106   0.08000
 Alpha virt. eigenvalues --    0.09709   0.10369   0.10369   0.13729   0.13729

 Mulliken charges:
               1
     1  C    0.516119
     2  C    0.516120
     3  C    0.516119
     4  C    0.516120
     5  F   -0.269234
     6  F   -0.246886
     7  F   -0.246886
     8  F   -0.269234
     9  F   -0.246886
    10  F   -0.269234
    11  F   -0.269234
    12  F   -0.246886
 Sum of Mulliken charges =   0.00000

 Dipole moment (field-independent basis, Debye):
    X=              0.0000    Y=              0.0000    Z=              0.0000  Tot=              0.0000
 Quadrupole moment (field-independent basis, Debye-Ang):
   XX=            -63.9346   YY=            -63.9346   ZZ=            -66.1263
   XY=              0.0000   XZ=              0.0000   YZ=              0.0000

  Exact polarizability:  47.598   0.000  47.598   0.000   0.000  48.420
 Approx polarizability:  52.721   0.000  52.721   0.000   0.000  60.273

                      1                      2                      3
                      A                      A                      A
 Frequencies --     49.8607               181.1233               181.1234
 Red. masses --     18.7708                18.7595                18.7595
 Frc consts  --      0.0275                 0.3626                 0.3626
 IR Inten    --      0.0000                 0.0877                 0.0877

                      4                      5                      6
                      A                      A                      A
 Frequencies --    182.6623               209.9773               249.2961
 Red. masses --     18.2210                18.9962                18.9470
 Frc consts  --      0.3582                 0.4935                 0.6938
 IR Inten    --      5.0006                 0.0000                 0.0002

                      7                      8                      9
                      A                      A                      A
 Frequencies --    276.3160               280.7017               280.7018
 Red. masses --     18.9369                18.3809                18.3809
 Frc consts  --      0.8519                 0.8533                 0.8533
 IR Inten    --      0.0001                 2.7266                 2.7266

                     10                     11                     12
                      A                      A                      A
 Frequencies --    353.7595               360.9317               441.3995
 Red. masses --     18.3911                18.6618                17.2325
 Frc consts  --      1.3560                 1.4324                 1.9782
 IR Inten    --      1.0446                 0.0000                 3.2506

                     13                     14                     15
                      A                      A                      A
 Frequencies --    441.3996               572.7750               572.7750
 Red. masses --     17.2325                16.7977                16.7977
 Frc consts  --      1.9782                 3.2469                 3.2469
 IR Inten    --      3.2506                30.8984                30.8985

                     16                     17                     18
                      A                      A                      A
 Frequencies --    616.4859               666.8131               721.7049
 Red. masses --     17.7343                17.4210                17.7468
 Frc consts  --      3.9711                 4.5638                 5.4462
 IR Inten    --      0.0000                 0.1879                 0.0000

                     19                     20                     21
                      A                      A                      A
 Frequencies --    877.6996               993.8028               993.8030
 Red. masses --     12.4585                14.0424                14.0424
 Frc consts  --      5.6547                 8.1713                 8.1713
 IR Inten    --      0.0000               208.3012               208.3007

                     22                     23                     24
                      A                      A                      A
 Frequencies --   1061.1630              1284.8011              1284.8013
 Red. masses --     12.0454                13.2857                13.2857
 Frc consts  --      7.9916                12.9213                12.9213
 IR Inten    --      0.1586                 1.6811                 1.6811

                     25                     26                     27
                      A                      A                      A
 Frequencies --   1289.0825              1347.9506              1352.5188
 Red. masses --     13.3999                13.1715                12.6561
 Frc consts  --     13.1194                14.1005                13.6407
 IR Inten    --    347.4404               356.6025                 0.0000

                     28                     29                     30
                      A                      A                      A
 Frequencies --   1396.8372              1396.8372              1496.5345
 Red. masses --     12.5741                12.5741                12.7222
 Frc consts  --     14.4550                14.4550                16.7875
 IR Inten    --    129.1445               129.1440                 0.0000

 - Thermochemistry -
 -------------------
 Temperature   298.150 Kelvin.  Pressure   1.00000 Atm.
 Atom     1 has atomic number  6 and mass  12.00000

 Molecular mass:   199.98723 amu.
 Principal axes and moments of inertia in atomic units:
                           1         2         3
     Eigenvalues --  1692.656571692.657152061.59072
           X            1.00000   0.00108   0.00000
           Y           -0.00108   1.00000   0.00000
           Z            0.00000   0.00000   1.00000
 This molecule is an asymmetric top.
 Rotational symmetry number  1.
 Warning -- assumption of classical behavior for rotation
           may cause significant error
 Rotational temperatures (Kelvin)      0.05117     0.05117     0.04201
 Rotational constants (GHZ):           1.06622     1.06622     0.87541
 Zero-point vibrational energy     128094.0 (Joules/Mol)
                                   30.61519 (Kcal/Mol)
 Warning -- explicit consideration of  16 degrees of freedom as
           vibrations may cause significant error
 Vibrational temperatures:     71.74   260.60   260.60   262.81   302.11
          (Kelvin)            358.68   397.56   403.87   403.87   508.98
                              519.30   635.07   635.07   824.09   824.09
                              886.98   959.39  1038.37  1262.81  1429.86
                             1429.86  1526.77  1848.54  1848.54  1854.70
                             1939.40  1945.97  2009.73  2009.73  2153.18

 Zero-point correction=                           0.048788 (Hartree/Particle)
 Thermal correction to Energy=                    0.058819
 Thermal correction to Enthalpy=                  0.059763
 Thermal correction to Gibbs Free Energy=         0.012890
 Sum of electronic and zero-point Energies=           -950.781167
 Sum of electronic and thermal Energies=              -950.771137
 Sum of electronic and thermal Enthalpies=            -950.770193
 Sum of electronic and thermal Free Energies=         -950.817066

                     E (Thermal)             CV                S
                      KCal/Mol        Cal/Mol-Kelvin    Cal/Mol-Kelvin
 Total                   36.909             35.618             98.653
 Electronic               0.000              0.000              0.000
 Translational            0.889              2.981             41.784
 Rotational               0.889              2.981             30.158
 Vibrational             35.132             29.656             26.710
 Vibration     1          0.595              1.978              4.823
 Vibration     2          0.630              1.865              2.317
 Vibration     3          0.630              1.865              2.317
 Vibration     4          0.630              1.863              2.301
 Vibration     5          0.642              1.826              2.044
 Vibration     6          0.662              1.764              1.736
 Vibration     7          0.678              1.717              1.556
 Vibration     8          0.680              1.709              1.529
 Vibration     9          0.680              1.709              1.529
 Vibration    10          0.730              1.568              1.149
 Vibration    11          0.735              1.553              1.118
 Vibration    12          0.801              1.380              0.822
 Vibration    13          0.801              1.380              0.822
 Vibration    14          0.929              1.090              0.499
 Vibration    15          0.929              1.090              0.499
 Vibration    16          0.976              0.997              0.422

 Normal termination of Gaussian 09 at Sat Mar 15 13:21:00 2025.
