 Gaussian 09, Revision D.01,
 Gaussian 09:  ES64L-G09RevD.01 24-Apr-2013

 ---------------------------------
 #m062X/6-31+G(d) OPT Freq=noraman
 ---------------------------------

 -------------------------
 1-chloro-2-methyl-benzene
 -------------------------
 Symbolic Z-matrix:
 Charge =  0 Multiplicity = 1

 SCF Done:  E(RM062X) =  -731.010504863     A.U. after   15 cycles
 SCF Done:  E(RM062X) =  -731.012152624     A.U. after   12 cycles
 SCF Done:  E(RM062X) =  -731.012526259     A.U. after   12 cycles
 SCF Done:  E(RM062X) =  -731.012939928     A.U. after   12 cycles
 SCF Done:  E(RM062X) =  -731.013242203     A.U. after   13 cycles
 SCF Done:  E(RM062X) =  -731.013329333     A.U. after   13 cycles
 SCF Done:  E(RM062X) =  -731.013346852     A.U. after   12 cycles
 SCF Done:  E(RM062X) =  -731.013351025     A.U. after   11 cycles
 SCF Done:  E(RM062X) =  -731.013351821     A.U. after   10 cycles
 SCF Done:  E(RM062X) =  -731.013351836     A.U. after    8 cycles
 Optimization completed.
    -- Stationary point found.
 Normal termination of Gaussian 09 at Fri Mar 21 14:36:22 2025.

 ---------------------------------------------------------------------
 #N Geom=AllCheck Guess=TCheck SCRF=Check GenChk RM062X/6-31+G(d) Freq
 ---------------------------------------------------------------------

 Structure from the checkpoint file:  "/srv/scratch/z5358697/gauss/Gau-34756.chk"
 -------------------------
 1-chloro-2-methyl-benzene
 -------------------------
 Charge =  0 Multiplicity = 1

                         Standard orientation:
 ---------------------------------------------------------------------
 Center     Atomic      Atomic             Coordinates (Angstroms)
 Number     Number       Type             X           Y           Z
 ---------------------------------------------------------------------
      1          6           0       -0.867142    2.100076   -0.000009
      2          6           0        0.090121    0.939535    0.000007
      3          6           0        1.474333    1.139392    0.000006
      4          6           0        2.369627    0.072747    0.000003
      5          6           0        1.889822   -1.234643   -0.000011
      6          6           0        0.516867   -1.467137    0.000001
      7          6           0       -0.358179   -0.385678    0.000008
      8         17           0       -2.077766   -0.708957    0.000001
      9          1           0       -1.517606    2.074550    0.880492
     10          1           0       -0.321314    3.046641    0.000106
     11          1           0       -1.517432    2.074658   -0.880642
     12          1           0        1.850733    2.159392    0.000009
     13          1           0        3.438490    0.263654    0.000001
     14          1           0        2.576942   -2.075234   -0.000018
     15          1           0        0.119524   -2.477136   -0.000003
 ---------------------------------------------------------------------

 SCF Done:  E(RM062X) =  -731.013351836     A.U. after    1 cycles

 The electronic state is 1-A.
 Alpha  occ. eigenvalues -- -102.67115 -10.61747 -10.57849 -10.56886 -10.56569
 Alpha  occ. eigenvalues --  -10.56522 -10.56367 -10.55169  -9.81777  -7.54174
 Alpha  occ. eigenvalues --   -7.53526  -7.53505  -1.00205  -0.93942  -0.88350
 Alpha  occ. eigenvalues --   -0.83456  -0.78589  -0.69882  -0.67361  -0.59134
 Alpha  occ. eigenvalues --   -0.55188  -0.53401  -0.50392  -0.49743  -0.48661
 Alpha  occ. eigenvalues --   -0.46203  -0.44823  -0.42247  -0.41559  -0.40114
 Alpha  occ. eigenvalues --   -0.37610  -0.31243  -0.29876
 Alpha virt. eigenvalues --    0.00889   0.01346   0.01766   0.02297   0.02889
 Alpha virt. eigenvalues --    0.04577   0.04950   0.06096   0.06632   0.07202
 Alpha virt. eigenvalues --    0.08235   0.08253   0.09468   0.09683   0.11824

 Mulliken charges:
               1
     1  C   -0.944322
     2  C   -0.211275
     3  C   -0.546557
     4  C   -0.123980
     5  C   -0.153387
     6  C   -0.309776
     7  C    0.556232
     8  Cl   0.174477
     9  H    0.245150
    10  H    0.212083
    11  H    0.245156
    12  H    0.205655
    13  H    0.210258
    14  H    0.212523
    15  H    0.227764
 Sum of Mulliken charges =   0.00000

 Dipole moment (field-independent basis, Debye):
    X=              1.4770    Y=              0.6807    Z=              0.0000  Tot=              1.6264
 Quadrupole moment (field-independent basis, Debye-Ang):
   XX=            -52.5840   YY=            -49.1189   ZZ=            -58.2553
   XY=             -1.6326   XZ=              0.0000   YZ=              0.0000

  Exact polarizability: 114.601  -0.936  97.704   0.000   0.000  53.409
 Approx polarizability: 139.237   1.477 122.081   0.000   0.000  67.581

                      1                      2                      3
                      A                      A                      A
 Frequencies --    154.0694               169.5582               241.5107
 Red. masses --      3.9057                 1.0383                 3.4648
 Frc consts  --      0.0546                 0.0176                 0.1191
 IR Inten    --      0.3426                 0.3723                 3.3012

                      4                      5                      6
                      A                      A                      A
 Frequencies --    254.8925               372.4522               445.2120
 Red. masses --      4.8478                 4.7209                 2.9502
 Frc consts  --      0.1856                 0.3859                 0.3445
 IR Inten    --      0.6243                 2.0952                 4.8624

                      7                      8                      9
                      A                      A                      A
 Frequencies --    450.1914               520.0495               559.4678
 Red. masses --      4.8175                 3.6343                 5.8435
 Frc consts  --      0.5753                 0.5791                 1.0776
 IR Inten    --      0.9673                 0.0705                 2.2246

                     10                     11                     12
                      A                      A                      A
 Frequencies --    697.1750               707.4152               770.9043
 Red. masses --      6.2236                 3.6354                 1.2241
 Frc consts  --      1.7823                 1.0719                 0.4286
 IR Inten    --     16.9269                 1.7416                69.0265

                     13                     14                     15
                      A                      A                      A
 Frequencies --    821.3960               882.8029               967.5486
 Red. masses --      4.6524                 1.2890                 1.3521
 Frc consts  --      1.8494                 0.5919                 0.7457
 IR Inten    --      1.8968                 0.0007                 0.7143

                     16                     17                     18
                      A                      A                      A
 Frequencies --   1013.5886              1018.2649              1070.3223
 Red. masses --      1.3013                 1.5468                 1.5094
 Frc consts  --      0.7877                 0.9449                 1.0188
 IR Inten    --      0.0035                 1.5783                 2.4692

                     19                     20                     21
                      A                      A                      A
 Frequencies --   1075.4698              1086.8808              1168.5123
 Red. masses --      4.8109                 2.0429                 1.4609
 Frc consts  --      3.2785                 1.4218                 1.1753
 IR Inten    --     62.6827                 2.0299                 4.7429

                     22                     23                     24
                      A                      A                      A
 Frequencies --   1187.7015              1253.9251              1312.4200
 Red. masses --      1.1049                 2.3920                 1.4569
 Frc consts  --      0.9183                 2.2159                 1.4785
 IR Inten    --      0.0508                 2.2467                 0.2674

                     25                     26                     27
                      A                      A                      A
 Frequencies --   1340.7379              1442.4883              1483.0991
 Red. masses --      6.6638                 1.2647                 1.8238
 Frc consts  --      7.0576                 1.5505                 2.3636
 IR Inten    --      1.1922                 1.7283                 6.6690

                     28                     29                     30
                      A                      A                      A
 Frequencies --   1508.2692              1521.6224              1538.4478
 Red. masses --      1.0416                 1.2990                 2.5219
 Frc consts  --      1.3961                 1.7721                 3.5167
 IR Inten    --      9.1965                16.9333                37.7555

                     31                     32                     33
                      A                      A                      A
 Frequencies --   1664.0291              1691.4313              3082.0258
 Red. masses --      6.2017                 6.7591                 1.0360
 Frc consts  --     10.1177                11.3933                 5.7982
 IR Inten    --      8.5988                 4.3000                16.0468

                     34                     35                     36
                      A                      A                      A
 Frequencies --   3147.3469              3165.6864              3203.0613
 Red. masses --      1.1012                 1.1030                 1.0879
 Frc consts  --      6.4269                 6.5129                 6.5764
 IR Inten    --      7.5907                11.8616                 4.5796

                     37                     38                     39
                      A                      A                      A
 Frequencies --   3215.5144              3226.6912              3235.6031
 Red. masses --      1.0894                 1.0940                 1.0982
 Frc consts  --      6.6365                 6.7111                 6.7741
 IR Inten    --      6.0403                 9.0188                 6.4496

 - Thermochemistry -
 -------------------
 Temperature   298.150 Kelvin.  Pressure   1.00000 Atm.
 Atom     1 has atomic number  6 and mass  12.00000

 Molecular mass:   126.02363 amu.
 Principal axes and moments of inertia in atomic units:
                           1         2         3
     Eigenvalues --   631.109361177.491271797.43796
           X            0.99823  -0.05946   0.00000
           Y            0.05946   0.99823   0.00000
           Z            0.00000   0.00000   1.00000
 This molecule is an asymmetric top.
 Rotational symmetry number  1.
 Warning -- assumption of classical behavior for rotation
           may cause significant error
 Rotational temperatures (Kelvin)      0.13724     0.07356     0.04819
 Rotational constants (GHZ):           2.85963     1.53270     1.00406
 Zero-point vibrational energy     315023.3 (Joules/Mol)
                                   75.29238 (Kcal/Mol)
 Warning -- explicit consideration of   9 degrees of freedom as
           vibrations may cause significant error
 Vibrational temperatures:    221.67   243.96   347.48   366.73   535.88
          (Kelvin)            640.56   647.72   748.23   804.95  1003.08
                             1017.81  1109.16  1181.80  1270.15  1392.08
                             1458.33  1465.05  1539.95  1547.36  1563.78
                             1681.23  1708.84  1804.12  1888.28  1929.02
                             2075.42  2133.85  2170.06  2189.27  2213.48
                             2394.16  2433.59  4434.34  4528.32  4554.71
                             4608.49  4626.40  4642.48  4655.31

 Zero-point correction=                           0.119986 (Hartree/Particle)
 Thermal correction to Energy=                    0.127039
 Thermal correction to Enthalpy=                  0.127983
 Thermal correction to Gibbs Free Energy=         0.088376
 Sum of electronic and zero-point Energies=           -730.893366
 Sum of electronic and thermal Energies=              -730.886313
 Sum of electronic and thermal Enthalpies=            -730.885369
 Sum of electronic and thermal Free Energies=         -730.924975

                     E (Thermal)             CV                S
                      KCal/Mol        Cal/Mol-Kelvin    Cal/Mol-Kelvin
 Total                   79.718             26.721             83.359
 Electronic               0.000              0.000              0.000
 Translational            0.889              2.981             40.408
 Rotational               0.889              2.981             28.681
 Vibrational             77.940             20.760             14.270
 Vibration     1          0.620              1.898              2.621
 Vibration     2          0.625              1.880              2.440
 Vibration     3          0.658              1.777              1.792
 Vibration     4          0.665              1.755              1.696
 Vibration     5          0.744              1.529              1.070
 Vibration     6          0.805              1.371              0.810
 Vibration     7          0.809              1.360              0.795
 Vibration     8          0.875              1.206              0.610
 Vibration     9          0.915              1.119              0.525

 Optimization completed.
    -- Stationary point found.
 Normal termination of Gaussian 09 at Fri Mar 21 14:42:28 2025.
