 Gaussian 09, Revision D.01,
 Gaussian 09:  ES64L-G09RevD.01 24-Apr-2013

 ---------------------------------
 #m062X/6-31+G(d) OPT Freq=noraman
 ---------------------------------

 -----------------
 1,2-dibromoethane
 -----------------
 Symbolic Z-matrix:
 Charge =  0 Multiplicity = 1

 SCF Done:  E(RM062X) =  -5222.16738029     A.U. after   11 cycles
 SCF Done:  E(RM062X) =  -5222.16749850     A.U. after    9 cycles
 SCF Done:  E(RM062X) =  -5222.16750436     A.U. after    8 cycles
 Optimization completed.
    -- Stationary point found.
 Normal termination of Gaussian 09 at Wed Mar 19 11:48:22 2025.

 ---------------------------------------------------------------------
 #N Geom=AllCheck Guess=TCheck SCRF=Check GenChk RM062X/6-31+G(d) Freq
 ---------------------------------------------------------------------

 Structure from the checkpoint file:  "/srv/scratch/z5358697/gauss/Gau-3510864.chk"
 -----------------
 1,2-dibromoethane
 -----------------
 Charge =  0 Multiplicity = 1

                         Standard orientation:
 ---------------------------------------------------------------------
 Center     Atomic      Atomic             Coordinates (Angstroms)
 Number     Number       Type             X           Y           Z
 ---------------------------------------------------------------------
      1          6           0        0.463408   -0.595546   -0.000003
      2          6           0       -0.463421    0.595520   -0.000002
      3         35           0       -2.306281   -0.030645    0.000000
      4         35           0        2.306283    0.030651    0.000001
      5          1           0        0.338600   -1.207955   -0.891886
      6          1           0        0.338596   -1.207947    0.891886
      7          1           0       -0.338595    1.207929    0.891878
      8          1           0       -0.338594    1.207929   -0.891886
 ---------------------------------------------------------------------

 SCF Done:  E(RM062X) =  -5222.16750436     A.U. after    1 cycles

 The electronic state is 1-A.
 Alpha  occ. eigenvalues -- -485.48083-485.48075 -62.76349 -62.76250 -57.29579
 Alpha  occ. eigenvalues --  -57.29570 -57.29314 -57.29304 -57.29297 -57.29295
 Alpha  occ. eigenvalues --  -10.62876 -10.62837  -8.93662  -8.93635  -6.89099
 Alpha  occ. eigenvalues --   -6.89099  -6.88089  -6.88089  -6.88060  -6.88060
 Alpha  occ. eigenvalues --   -2.91950  -2.91950  -2.91609  -2.91609  -2.91582
 Alpha  occ. eigenvalues --   -2.91582  -2.90690  -2.90689  -2.90689  -2.90689
 Alpha  occ. eigenvalues --   -0.95815  -0.88583  -0.79453  -0.71779  -0.58417
 Alpha  occ. eigenvalues --   -0.51333  -0.50456  -0.48170  -0.42607  -0.35612
 Alpha  occ. eigenvalues --   -0.35214  -0.34681  -0.34619
 Alpha virt. eigenvalues --   -0.00204   0.00239   0.03296   0.03371   0.03991
 Alpha virt. eigenvalues --    0.05333   0.06388   0.06990   0.07383   0.07901
 Alpha virt. eigenvalues --    0.08353   0.09075   0.09082   0.10207   0.12719

 Mulliken charges:
               1
     1  C   -0.452515
     2  C   -0.452526
     3  Br  -0.082712
     4  Br  -0.082723
     5  H    0.267619
     6  H    0.267619
     7  H    0.267619
     8  H    0.267618
 Sum of Mulliken charges =   0.00000

 Dipole moment (field-independent basis, Debye):
    X=             -0.0001    Y=              0.0000    Z=              0.0000  Tot=              0.0001
 Quadrupole moment (field-independent basis, Debye-Ang):
   XX=            -57.0782   YY=            -49.1759   ZZ=            -50.1636
   XY=              0.1300   XZ=              0.0000   YZ=              0.0000

  Exact polarizability:  89.580   4.370  49.600   0.007  -0.003  47.551
 Approx polarizability: 100.563   8.399  63.825   0.000   0.000  61.307

                      1                      2                      3
                      A                      A                      A
 Frequencies --    151.7244               195.3776               201.6017
 Red. masses --      3.8410                 4.8399                38.4447
 Frc consts  --      0.0521                 0.1089                 0.9206
 IR Inten    --      5.1580                 6.2951                 0.0000

                      4                      5                      6
                      A                      A                      A
 Frequencies --    635.3556               709.3937               763.3621
 Red. masses --      6.9491                 4.3656                 1.1095
 Frc consts  --      1.6528                 1.2944                 0.3809
 IR Inten    --     71.3113                 0.0001                 3.3438

                      7                      8                      9
                      A                      A                      A
 Frequencies --    976.0248              1101.3478              1136.0346
 Red. masses --      1.3199                 3.7307                 1.0316
 Frc consts  --      0.7408                 2.6662                 0.7844
 IR Inten    --      0.0000                 0.0001                 4.5915

                     10                     11                     12
                      A                      A                      A
 Frequencies --   1242.9087              1304.1287              1326.4771
 Red. masses --      1.1474                 1.1777                 1.2760
 Frc consts  --      1.0444                 1.1802                 1.3229
 IR Inten    --     61.8082                 0.0000                 0.0000

                     13                     14                     15
                      A                      A                      A
 Frequencies --   1502.7965              1507.8764              3152.7002
 Red. masses --      1.0943                 1.1155                 1.0588
 Frc consts  --      1.4561                 1.4943                 6.2008
 IR Inten    --      8.1515                 0.0001                 0.0003

                     16                     17                     18
                      A                      A                      A
 Frequencies --   3160.9290              3215.3177              3236.6338
 Red. masses --      1.0562                 1.1119                 1.1127
 Frc consts  --      6.2178                 6.7727                 6.8681
 IR Inten    --      3.8059                 0.0000                 0.0379

 - Thermochemistry -
 -------------------
 Temperature   298.150 Kelvin.  Pressure   1.00000 Atm.
 Atom     1 has atomic number  6 and mass  12.00000

 Molecular mass:   185.86797 amu.
 Principal axes and moments of inertia in atomic units:
                           1         2         3
     Eigenvalues --    63.346923029.534693069.97875
           X            0.99999  -0.00347   0.00000
           Y            0.00347   0.99999   0.00000
           Z            0.00000   0.00000   1.00000
 This molecule is an asymmetric top.
 Rotational symmetry number  1.
 Rotational temperatures (Kelvin)      1.36729     0.02859     0.02821
 Rotational constants (GHZ):          28.48980     0.59572     0.58787
 Zero-point vibrational energy     152643.4 (Joules/Mol)
                                   36.48266 (Kcal/Mol)
 Warning -- explicit consideration of   3 degrees of freedom as
           vibrations may cause significant error
 Vibrational temperatures:    218.30   281.10   290.06   914.13  1020.66
          (Kelvin)           1098.31  1404.28  1584.59  1634.50  1788.27
                             1876.35  1908.50  2162.19  2169.50  4536.03
                             4547.87  4626.12  4656.79

 Zero-point correction=                           0.058139 (Hartree/Particle)
 Thermal correction to Energy=                    0.063210
 Thermal correction to Enthalpy=                  0.064154
 Thermal correction to Gibbs Free Energy=         0.027268
 Sum of electronic and zero-point Energies=          -5222.109366
 Sum of electronic and thermal Energies=             -5222.104295
 Sum of electronic and thermal Enthalpies=           -5222.103350
 Sum of electronic and thermal Free Energies=        -5222.140237

                     E (Thermal)             CV                S
                      KCal/Mol        Cal/Mol-Kelvin    Cal/Mol-Kelvin
 Total                   39.665             15.570             77.634
 Electronic               0.000              0.000              0.000
 Translational            0.889              2.981             41.566
 Rotational               0.889              2.981             27.868
 Vibrational             37.887              9.608              8.200
 Vibration     1          0.619              1.901              2.650
 Vibration     2          0.636              1.846              2.176
 Vibration     3          0.638              1.838              2.118

 Optimization completed.
    -- Stationary point found.
 Normal termination of Gaussian 09 at Wed Mar 19 11:49:27 2025.
