 Gaussian 09, Revision D.01,
 Gaussian 09:  ES64L-G09RevD.01 24-Apr-2013

 ---------------------------------
 #m062X/6-31+G(d) OPT Freq=noraman
 ---------------------------------

 -----------
 ethanethiol
 -----------
 Symbolic Z-matrix:
 Charge =  0 Multiplicity = 1

 SCF Done:  E(RM062X) =  -477.923560541     A.U. after   12 cycles
 SCF Done:  E(RM062X) =  -477.924526671     A.U. after   11 cycles
 SCF Done:  E(RM062X) =  -477.924590631     A.U. after   10 cycles
 SCF Done:  E(RM062X) =  -477.924591851     A.U. after    9 cycles
 SCF Done:  E(RM062X) =  -477.924592841     A.U. after    9 cycles
 SCF Done:  E(RM062X) =  -477.924592839     A.U. after    9 cycles
 Optimization completed.
    -- Stationary point found.

 1\1\GINC-KATANA2\FOpt\RM062X\6-31+G(d)\C2H6S1\Z5358697\19-Mar-2025\0\\
 #m062X/6-31+G(d) OPT Freq=noraman\\ethanethiol\\0,1\C,0.4157620609,-0.
 3512448655,0.9390728417\C,1.84275695,-0.8498236662,0.7540654094\S,2.97
 56364489,0.4161780372,0.0812206959\H,-0.2256854754,-1.1574367611,1.312
 1011308\H,0.3785695371,0.4698746472,1.6626366381\H,0.0057015347,0.0129
 792547,-0.0068647006\H,1.8757350404,-1.6654633614,0.0261596863\H,2.251
 8545443,-1.2359912486,1.6914790593\H,2.806969359,1.2977279637,1.082029
 239\\Version=ES64L-G09RevD.01\State=1-A\HF=-477.9245928\RMSD=4.347e-09

 Normal termination of Gaussian 09 at Wed Mar 19 12:21:13 2025.

 ---------------------------------------------------------------------
 #N Geom=AllCheck Guess=TCheck SCRF=Check GenChk RM062X/6-31+G(d) Freq
 ---------------------------------------------------------------------

 Structure from the checkpoint file:  "/srv/scratch/z5358697/gauss/Gau-1291776.chk"
 -----------
 ethanethiol
 -----------
 Charge =  0 Multiplicity = 1

                         Standard orientation:
 ---------------------------------------------------------------------
 Center     Atomic      Atomic             Coordinates (Angstroms)
 Number     Number       Type             X           Y           Z
 ---------------------------------------------------------------------
      1          6           0        1.632557   -0.352433   -0.054890
      2          6           0        0.495438    0.650054    0.090368
      3         16           0       -1.162657   -0.099294   -0.077239
      4          1           0        2.601105    0.154277    0.020684
      5          1           0        1.588178   -1.111772    0.732892
      6          1           0        1.579239   -0.863321   -1.020166
      7          1           0        0.540265    1.402639   -0.701976
      8          1           0        0.554926    1.180689    1.044370
      9          1           0       -1.029166   -0.959526    0.947153
 ---------------------------------------------------------------------

 SCF Done:  E(RM062X) =  -477.924592839     A.U. after    1 cycles

 The electronic state is 1-A.
 Alpha  occ. eigenvalues --  -89.91535 -10.58369 -10.54944  -8.26279  -6.18361
 Alpha  occ. eigenvalues --   -6.18114  -6.17657  -0.90150  -0.79495  -0.69294
 Alpha  occ. eigenvalues --   -0.54223  -0.50324  -0.47375  -0.44116  -0.42044
 Alpha  occ. eigenvalues --   -0.37996  -0.29302
 Alpha virt. eigenvalues --    0.02026   0.03779   0.04240   0.05316   0.06370
 Alpha virt. eigenvalues --    0.08245   0.08353   0.08954   0.09811   0.11672
 Alpha virt. eigenvalues --    0.12970   0.14309   0.15385   0.17880   0.22689

 Mulliken charges:
               1
     1  C   -0.707559
     2  C   -0.505346
     3  S   -0.021045
     4  H    0.211023
     5  H    0.211527
     6  H    0.229319
     7  H    0.242725
     8  H    0.243683
     9  H    0.095672
 Sum of Mulliken charges =   0.00000

 Dipole moment (field-independent basis, Debye):
    X=              1.6542    Y=              0.0840    Z=              0.7804  Tot=              1.8309
 Quadrupole moment (field-independent basis, Debye-Ang):
   XX=            -29.7016   YY=            -27.3896   ZZ=            -27.4520
   XY=              1.4269   XZ=             -0.7498   YZ=             -1.8108

  Exact polarizability:  50.592   2.232  40.738  -0.286  -0.321  38.198
 Approx polarizability:  51.538   3.757  46.470   0.170  -1.677  44.611

                      1                      2                      3
                      A                      A                      A
 Frequencies --    246.8649               276.2227               337.7147
 Red. masses --      1.0325                 1.1972                 2.6497
 Frc consts  --      0.0371                 0.0538                 0.1780
 IR Inten    --      6.7261                13.2829                 3.9357

                      4                      5                      6
                      A                      A                      A
 Frequencies --    682.8310               744.9336               880.5261
 Red. masses --      3.6156                 1.1662                 1.0668
 Frc consts  --      0.9932                 0.3813                 0.4873
 IR Inten    --      4.3593                 2.0280                 9.6022

                      7                      8                      9
                      A                      A                      A
 Frequencies --   1007.9130              1085.4573              1138.5417
 Red. masses --      1.7410                 1.8496                 1.4730
 Frc consts  --      1.0420                 1.2840                 1.1250
 IR Inten    --      6.7911                 0.6227                12.1079

                     10                     11                     12
                      A                      A                      A
 Frequencies --   1291.0950              1328.3614              1433.4148
 Red. masses --      1.1609                 1.3070                 1.2458
 Frc consts  --      1.1401                 1.3588                 1.5081
 IR Inten    --      2.7638                23.6964                 5.8245

                     13                     14                     15
                      A                      A                      A
 Frequencies --   1504.0943              1517.0669              1524.1173
 Red. masses --      1.0843                 1.0384                 1.0483
 Frc consts  --      1.4452                 1.4081                 1.4348
 IR Inten    --      2.0983                11.0532                 4.1441

                     16                     17                     18
                      A                      A                      A
 Frequencies --   2743.6820              3072.9219              3105.0802
 Red. masses --      1.0385                 1.0359                 1.0604
 Frc consts  --      4.6059                 5.7634                 6.0237
 IR Inten    --     13.6559                22.8984                14.8626

                     19                     20                     21
                      A                      A                      A
 Frequencies --   3140.8367              3151.8041              3169.2773
 Red. masses --      1.1030                 1.1030                 1.1051
 Frc consts  --      6.4110                 6.4557                 6.5399
 IR Inten    --     15.6301                10.9465                21.3469

 - Thermochemistry -
 -------------------
 Temperature   298.150 Kelvin.  Pressure   1.00000 Atm.
 Atom     1 has atomic number  6 and mass  12.00000

 Molecular mass:    62.01902 amu.
 Principal axes and moments of inertia in atomic units:
                           1         2         3
     Eigenvalues --    62.83956 341.11240 372.90284
           X            0.99991  -0.00525  -0.01195
           Y            0.00445   0.99782  -0.06591
           Z            0.01227   0.06585   0.99775
 This molecule is an asymmetric top.
 Rotational symmetry number  1.
 Rotational temperatures (Kelvin)      1.37833     0.25392     0.23227
 Rotational constants (GHZ):          28.71983     5.29075     4.83971
 Zero-point vibrational energy     199673.2 (Joules/Mol)
                                   47.72305 (Kcal/Mol)
 Warning -- explicit consideration of   3 degrees of freedom as
           vibrations may cause significant error
 Vibrational temperatures:    355.18   397.42   485.90   982.44  1071.79
          (Kelvin)           1266.88  1450.16  1561.73  1638.11  1857.60
                             1911.21  2062.36  2164.05  2182.72  2192.86
                             3947.54  4421.24  4467.51  4518.96  4534.74
                             4559.88

 Zero-point correction=                           0.076052 (Hartree/Particle)
 Thermal correction to Energy=                    0.080600
 Thermal correction to Enthalpy=                  0.081544
 Thermal correction to Gibbs Free Energy=         0.049488
 Sum of electronic and zero-point Energies=           -477.848541
 Sum of electronic and thermal Energies=              -477.843993
 Sum of electronic and thermal Enthalpies=            -477.843049
 Sum of electronic and thermal Free Energies=         -477.875105

                     E (Thermal)             CV                S
                      KCal/Mol        Cal/Mol-Kelvin    Cal/Mol-Kelvin
 Total                   50.577             14.688             67.469
 Electronic               0.000              0.000              0.000
 Translational            0.889              2.981             38.294
 Rotational               0.889              2.981             23.595
 Vibrational             48.800              8.727              5.579
 Vibration     1          0.661              1.768              1.753
 Vibration     2          0.678              1.717              1.557
 Vibration     3          0.718              1.600              1.223

 Optimization completed.
    -- Stationary point found.

 1\1\GINC-KATANA2\Freq\RM062X\6-31+G(d)\C2H6S1\Z5358697\19-Mar-2025\0\\
 #N Geom=AllCheck Guess=TCheck SCRF=Check GenChk RM062X/6-31+G(d) Freq\
 \ethanethiol\\0,1\C,0.4157620609,-0.3512448655,0.9390728417\C,1.842756
 95,-0.8498236662,0.7540654094\S,2.9756364489,0.4161780372,0.0812206959
 \H,-0.2256854754,-1.1574367611,1.3121011308\H,0.3785695371,0.469874647
 2,1.6626366381\H,0.0057015347,0.0129792547,-0.0068647006\H,1.875735040
 4,-1.6654633614,0.0261596863\H,2.2518545443,-1.2359912486,1.6914790593
 \H,2.806969359,1.2977279637,1.082029239\\Version=ES64L-G09RevD.01\Stat

 Normal termination of Gaussian 09 at Wed Mar 19 12:21:50 2025.
