 Gaussian 09, Revision D.01,
 Gaussian 09:  ES64L-G09RevD.01 24-Apr-2013

 ---------------------------------
 #m062X/6-31+G(d) OPT Freq=noraman
 ---------------------------------

 --------------------------------------
 1,1,2-trichloro-1,2,2-trifluoro-ethane
 --------------------------------------
 Symbolic Z-matrix:
 Charge =  0 Multiplicity = 1

 SCF Done:  E(RM062X) =  -1756.09966874     A.U. after   13 cycles
 SCF Done:  E(RM062X) =  -1756.10223145     A.U. after   11 cycles
 SCF Done:  E(RM062X) =  -1756.10239382     A.U. after   11 cycles
 SCF Done:  E(RM062X) =  -1756.10241349     A.U. after    9 cycles
 SCF Done:  E(RM062X) =  -1756.10241385     A.U. after    9 cycles
 SCF Done:  E(RM062X) =  -1756.10241392     A.U. after    8 cycles
 Optimization completed.
    -- Stationary point found.
 Normal termination of Gaussian 09 at Tue Mar 18 22:15:21 2025.

 ---------------------------------------------------------------------
 #N Geom=AllCheck Guess=TCheck SCRF=Check GenChk RM062X/6-31+G(d) Freq
 ---------------------------------------------------------------------

 Structure from the checkpoint file:  "/srv/scratch/z5358697/gauss/Gau-923682.chk"
 --------------------------------------
 1,1,2-trichloro-1,2,2-trifluoro-ethane
 --------------------------------------
 Charge =  0 Multiplicity = 1

                         Standard orientation:
 ---------------------------------------------------------------------
 Center     Atomic      Atomic             Coordinates (Angstroms)
 Number     Number       Type             X           Y           Z
 ---------------------------------------------------------------------
      1          6           0       -0.869430   -0.000520    0.413869
      2          6           0        0.681402    0.000001    0.263603
      3          9           0        1.167761   -0.000597    1.519209
      4         17           0        1.229153    1.460156   -0.554978
      5         17           0        1.229765   -1.459164   -0.556625
      6          9           0       -1.213500   -1.081291    1.121889
      7          9           0       -1.213930    1.078632    1.124181
      8         17           0       -1.725671    0.000915   -1.120888
 ---------------------------------------------------------------------

 SCF Done:  E(RM062X) =  -1756.10241392     A.U. after    1 cycles

 The electronic state is 1-A.
 Alpha  occ. eigenvalues -- -102.71362-102.71360-102.71211 -25.33354 -25.33353
 Alpha  occ. eigenvalues --  -25.33270 -10.82691 -10.79926  -9.86115  -9.86113
 Alpha  occ. eigenvalues --   -9.85991  -7.58557  -7.58555  -7.58421  -7.57800
 Alpha  occ. eigenvalues --   -7.57798  -7.57791  -7.57789  -7.57685  -7.57679
 Alpha  occ. eigenvalues --   -1.47762  -1.43452  -1.40658  -1.05742  -1.00079
 Alpha  occ. eigenvalues --   -0.96959  -0.86485  -0.77018  -0.71202  -0.70726
 Alpha  occ. eigenvalues --   -0.67789  -0.64063  -0.63081  -0.59322  -0.57848
 Alpha  occ. eigenvalues --   -0.55562  -0.53532  -0.50627  -0.49041  -0.45260
 Alpha  occ. eigenvalues --   -0.43804  -0.42306  -0.41818  -0.41066  -0.40410
 Alpha virt. eigenvalues --   -0.00461   0.01750   0.02071   0.02081   0.04662
 Alpha virt. eigenvalues --    0.05387   0.05719   0.07356   0.07535   0.07968
 Alpha virt. eigenvalues --    0.08733   0.09817   0.11302   0.11800   0.12282

 Mulliken charges:
               1
     1  C    0.284995
     2  C   -0.096425
     3  F   -0.187381
     4  Cl   0.142891
     5  Cl   0.142857
     6  F   -0.225252
     7  F   -0.225238
     8  Cl   0.163551
 Sum of Mulliken charges =   0.00000

 Dipole moment (field-independent basis, Debye):
    X=              0.1388    Y=              0.0013    Z=             -1.0198  Tot=              1.0292
 Quadrupole moment (field-independent basis, Debye-Ang):
   XX=            -64.1572   YY=            -63.4551   ZZ=            -64.6230
   XY=             -0.0003   XZ=              0.3023   YZ=             -0.0005

  Exact polarizability:  57.863  -0.005  64.819   1.613   0.002  57.803
 Approx polarizability:  62.865  -0.008  79.189   1.995   0.001  74.272

                      1                      2                      3
                      A                      A                      A
 Frequencies --     69.8451               168.4328               178.7669
 Red. masses --     25.5473                30.3884                25.8933
 Frc consts  --      0.0734                 0.5079                 0.4875
 IR Inten    --      0.0207                 0.3441                 0.6784

                      4                      5                      6
                      A                      A                      A
 Frequencies --    253.7692               308.7689               313.1060
 Red. masses --     26.3812                19.8887                20.7770
 Frc consts  --      1.0010                 1.1172                 1.2001
 IR Inten    --      0.0565                 1.5270                 0.6925

                      7                      8                      9
                      A                      A                      A
 Frequencies --    381.3353               386.0119               449.9799
 Red. masses --     21.9946                21.9658                26.4874
 Frc consts  --      1.8844                 1.9284                 3.1599
 IR Inten    --      0.4867                 1.1671                 0.6945

                     10                     11                     12
                      A                      A                      A
 Frequencies --    466.4158               520.3898               637.9376
 Red. masses --     20.2693                20.5356                17.6894
 Frc consts  --      2.5980                 3.2765                 4.2415
 IR Inten    --      1.6911                 4.3807                19.9129

                     13                     14                     15
                      A                      A                      A
 Frequencies --    904.9518               940.3874              1087.4869
 Red. masses --     13.4032                12.7998                12.9547
 Frc consts  --      6.4671                 6.6691                 9.0266
 IR Inten    --    158.3292               248.3353               282.7830

                     16                     17                     18
                      A                      A                      A
 Frequencies --   1168.8705              1240.5189              1272.1537
 Red. masses --     13.3765                13.2927                12.8503
 Frc consts  --     10.7678                12.0523                12.2530
 IR Inten    --      8.5618               145.5260               186.7219

 - Thermochemistry -
 -------------------
 Temperature   298.150 Kelvin.  Pressure   1.00000 Atm.
 Atom     1 has atomic number  6 and mass  12.00000

 Molecular mass:   185.90177 amu.
 Principal axes and moments of inertia in atomic units:
                           1         2         3
     Eigenvalues --  1262.408381666.107441784.46052
           X            1.00000  -0.00001   0.00271
           Y            0.00001   1.00000   0.00002
           Z           -0.00271  -0.00002   1.00000
 This molecule is an asymmetric top.
 Rotational symmetry number  1.
 Warning -- assumption of classical behavior for rotation
           may cause significant error
 Rotational temperatures (Kelvin)      0.06861     0.05199     0.04854
 Rotational constants (GHZ):           1.42960     1.08321     1.01137
 Zero-point vibrational energy      64294.1 (Joules/Mol)
                                   15.36665 (Kcal/Mol)
 Warning -- explicit consideration of  11 degrees of freedom as
           vibrations may cause significant error
 Vibrational temperatures:    100.49   242.34   257.21   365.12   444.25
          (Kelvin)            450.49   548.66   555.38   647.42   671.07
                              748.72   917.85  1302.02  1353.01  1564.65
                             1681.74  1784.83  1830.34

 Zero-point correction=                           0.024488 (Hartree/Particle)
 Thermal correction to Energy=                    0.032302
 Thermal correction to Enthalpy=                  0.033246
 Thermal correction to Gibbs Free Energy=        -0.009359
 Sum of electronic and zero-point Energies=          -1756.077926
 Sum of electronic and thermal Energies=             -1756.070112
 Sum of electronic and thermal Enthalpies=           -1756.069168
 Sum of electronic and thermal Free Energies=        -1756.111773

                     E (Thermal)             CV                S
                      KCal/Mol        Cal/Mol-Kelvin    Cal/Mol-Kelvin
 Total                   20.270             26.394             89.670
 Electronic               0.000              0.000              0.000
 Translational            0.889              2.981             41.566
 Rotational               0.889              2.981             29.708
 Vibrational             18.492             20.433             18.396
 Vibration     1          0.598              1.969              4.158
 Vibration     2          0.625              1.881              2.453
 Vibration     3          0.629              1.868              2.341
 Vibration     4          0.665              1.756              1.704
 Vibration     5          0.698              1.657              1.369
 Vibration     6          0.701              1.649              1.346
 Vibration     7          0.751              1.510              1.034
 Vibration     8          0.755              1.500              1.016
 Vibration     9          0.809              1.361              0.796
 Vibration    10          0.824              1.325              0.748
 Vibration    11          0.875              1.205              0.609

 Optimization completed.
    -- Stationary point found.
 Normal termination of Gaussian 09 at Tue Mar 18 22:17:51 2025.
