 Gaussian 09, Revision D.01,
 Gaussian 09:  ES64L-G09RevD.01 24-Apr-2013

 ---------------------------------
 #m062X/6-31+G(d) OPT Freq=noraman
 ---------------------------------

 ------------------
 1,2-dichloroethane
 ------------------
 Symbolic Z-matrix:
 Charge =  0 Multiplicity = 1

 SCF Done:  E(RM062X) =  -998.908987795     A.U. after   11 cycles
 SCF Done:  E(RM062X) =  -998.909628942     A.U. after   10 cycles
 SCF Done:  E(RM062X) =  -998.909680909     A.U. after    9 cycles
 SCF Done:  E(RM062X) =  -998.909684438     A.U. after    8 cycles
 Optimization completed.
    -- Stationary point found.
 Normal termination of Gaussian 09 at Wed Mar 19 11:56:25 2025.

 ---------------------------------------------------------------------
 #N Geom=AllCheck Guess=TCheck SCRF=Check GenChk RM062X/6-31+G(d) Freq
 ---------------------------------------------------------------------

 Structure from the checkpoint file:  "/srv/scratch/z5358697/gauss/Gau-1286453.chk"
 ------------------
 1,2-dichloroethane
 ------------------
 Charge =  0 Multiplicity = 1

                         Standard orientation:
 ---------------------------------------------------------------------
 Center     Atomic      Atomic             Coordinates (Angstroms)
 Number     Number       Type             X           Y           Z
 ---------------------------------------------------------------------
      1          6           0        0.655229    0.898514   -0.378573
      2          6           0       -0.655229    0.898513    0.378573
      3         17           0       -1.705369   -0.473112   -0.081946
      4         17           0        1.705369   -0.473112    0.081946
      5          1           0        1.202911    1.814905   -0.146880
      6          1           0        0.488514    0.836913   -1.454856
      7          1           0       -0.488512    0.836913    1.454856
      8          1           0       -1.202911    1.814905    0.146882
 ---------------------------------------------------------------------

 SCF Done:  E(RM062X) =  -998.909684438     A.U. after    1 cycles

 The electronic state is 1-A.
 Alpha  occ. eigenvalues -- -102.66579-102.66579 -10.62982 -10.62943  -9.81289
 Alpha  occ. eigenvalues --   -9.81288  -7.53703  -7.53703  -7.53018  -7.53017
 Alpha  occ. eigenvalues --   -7.53002  -7.53001  -0.99573  -0.94268  -0.83005
 Alpha  occ. eigenvalues --   -0.71396  -0.57288  -0.56147  -0.51365  -0.47222
 Alpha  occ. eigenvalues --   -0.46164  -0.38098  -0.37477  -0.36612  -0.36402
 Alpha virt. eigenvalues --    0.01151   0.03143   0.03236   0.04065   0.06031
 Alpha virt. eigenvalues --    0.06206   0.08850   0.08895   0.09722   0.10788
 Alpha virt. eigenvalues --    0.12052   0.12408   0.12646   0.13436   0.14210

 Mulliken charges:
               1
     1  C   -0.568391
     2  C   -0.568392
     3  Cl   0.032449
     4  Cl   0.032448
     5  H    0.259378
     6  H    0.276565
     7  H    0.276565
     8  H    0.259378
 Sum of Mulliken charges =   0.00000

 Dipole moment (field-independent basis, Debye):
    X=              0.0000    Y=              2.9924    Z=              0.0000  Tot=              2.9924
 Quadrupole moment (field-independent basis, Debye-Ang):
   XX=            -43.2157   YY=            -35.6786   ZZ=            -37.6884
   XY=              0.0000   XZ=             -0.6426   YZ=              0.0000

  Exact polarizability:  52.070   0.000  47.954   2.132   0.000  37.968
 Approx polarizability:  53.331   0.000  56.602   3.504   0.000  43.805

                      1                      2                      3
                      A                      A                      A
 Frequencies --    111.3003               269.1570               417.4212
 Red. masses --      8.3593                 2.4563                 3.1572
 Frc consts  --      0.0610                 0.1048                 0.3241
 IR Inten    --      0.9920                 0.7418                 7.8021

                      4                      5                      6
                      A                      A                      A
 Frequencies --    693.6066               720.6689               913.8020
 Red. masses --      5.0303                 3.3022                 1.7571
 Frc consts  --      1.4258                 1.0105                 0.8645
 IR Inten    --     21.0806                27.1674                19.9884

                      7                      8                      9
                      A                      A                      A
 Frequencies --    981.4026              1074.9046              1188.1915
 Red. masses --      1.6435                 2.3427                 1.0375
 Frc consts  --      0.9326                 1.5948                 0.8630
 IR Inten    --     11.1560                 0.8006                 1.5370

                     10                     11                     12
                      A                      A                      A
 Frequencies --   1259.8252              1351.3871              1372.6058
 Red. masses --      1.1620                 1.2253                 1.2939
 Frc consts  --      1.0866                 1.3184                 1.4363
 IR Inten    --      1.1930                43.3378                23.6364

                     13                     14                     15
                      A                      A                      A
 Frequencies --   1493.8331              1499.5599              3125.9864
 Red. masses --      1.0802                 1.1069                 1.0586
 Frc consts  --      1.4203                 1.4665                 6.0945
 IR Inten    --     13.8081                 0.5869                 3.5743

                     16                     17                     18
                      A                      A                      A
 Frequencies --   3131.2087              3188.9627              3200.6320
 Red. masses --      1.0596                 1.1097                 1.1082
 Frc consts  --      6.1207                 6.6488                 6.6886
 IR Inten    --     19.2856                 0.4846                 2.2405

 - Thermochemistry -
 -------------------
 Temperature   298.150 Kelvin.  Pressure   1.00000 Atm.
 Atom     1 has atomic number  6 and mass  12.00000

 Molecular mass:    97.96901 amu.
 Principal axes and moments of inertia in atomic units:
                           1         2         3
     Eigenvalues --   181.73520 804.62981 927.80435
           X            0.99995   0.00000  -0.00973
           Y            0.00000   1.00000   0.00000
           Z            0.00973   0.00000   0.99995
 This molecule is an asymmetric top.
 Rotational symmetry number  1.
 Rotational temperatures (Kelvin)      0.47659     0.10764     0.09335
 Rotational constants (GHZ):           9.93061     2.24295     1.94517
 Zero-point vibrational energy     155481.4 (Joules/Mol)
                                   37.16094 (Kcal/Mol)
 Warning -- explicit consideration of   3 degrees of freedom as
           vibrations may cause significant error
 Vibrational temperatures:    160.14   387.26   600.58   997.94  1036.88
          (Kelvin)           1314.76  1412.02  1546.55  1709.54  1812.61
                             1944.34  1974.87  2149.29  2157.53  4497.59
                             4505.11  4588.20  4604.99

 Zero-point correction=                           0.059220 (Hartree/Particle)
 Thermal correction to Energy=                    0.063915
 Thermal correction to Enthalpy=                  0.064859
 Thermal correction to Gibbs Free Energy=         0.030244
 Sum of electronic and zero-point Energies=           -998.850465
 Sum of electronic and thermal Energies=              -998.845770
 Sum of electronic and thermal Enthalpies=            -998.844825
 Sum of electronic and thermal Free Energies=         -998.879441

                     E (Thermal)             CV                S
                      KCal/Mol        Cal/Mol-Kelvin    Cal/Mol-Kelvin
 Total                   40.107             14.652             72.854
 Electronic               0.000              0.000              0.000
 Translational            0.889              2.981             39.657
 Rotational               0.889              2.981             26.409
 Vibrational             38.330              8.690              6.789
 Vibration     1          0.607              1.940              3.246
 Vibration     2          0.674              1.730              1.602
 Vibration     3          0.780              1.432              0.901

 Optimization completed.
    -- Stationary point found.
 Normal termination of Gaussian 09 at Wed Mar 19 11:57:10 2025.
