 Gaussian 09, Revision D.01,
 Gaussian 09:  ES64L-G09RevD.01 24-Apr-2013

 ---------------------------------
 #m062X/6-31+G(d) OPT Freq=noraman
 ---------------------------------

 -------
 toluene
 -------
 Symbolic Z-matrix:
 Charge =  0 Multiplicity = 1

 SCF Done:  E(RM062X) =  -271.440711923     A.U. after   12 cycles
 SCF Done:  E(RM062X) =  -271.441410359     A.U. after   11 cycles
 SCF Done:  E(RM062X) =  -271.441442129     A.U. after    9 cycles
 SCF Done:  E(RM062X) =  -271.441443130     A.U. after    9 cycles
 Optimization completed.
    -- Stationary point found.
 Normal termination of Gaussian 09 at Fri Mar 21 14:44:52 2025.

 ---------------------------------------------------------------------
 #N Geom=AllCheck Guess=TCheck SCRF=Check GenChk RM062X/6-31+G(d) Freq
 ---------------------------------------------------------------------

 Structure from the checkpoint file:  "/srv/scratch/z5358697/gauss/Gau-4159103.chk"
 -------
 toluene
 -------
 Charge =  0 Multiplicity = 1

                         Standard orientation:
 ---------------------------------------------------------------------
 Center     Atomic      Atomic             Coordinates (Angstroms)
 Number     Number       Type             X           Y           Z
 ---------------------------------------------------------------------
      1          6           0       -2.419866    0.000002    0.010084
      2          6           0       -0.911413   -0.000006   -0.012308
      3          6           0       -0.195162    1.200620   -0.009347
      4          6           0        1.198497    1.203926    0.002193
      5          6           0        1.900870    0.000000    0.008546
      6          6           0        1.198503   -1.203920    0.002191
      7          6           0       -0.195164   -1.200623   -0.009346
      8          1           0       -2.793965   -0.000154    1.040470
      9          1           0       -2.824367    0.886124   -0.487862
     10          1           0       -2.824384   -0.885962   -0.488131
     11          1           0       -0.737291    2.143928   -0.018015
     12          1           0        1.736365    2.147950    0.002420
     13          1           0        2.986955    0.000002    0.014635
     14          1           0        1.736370   -2.147944    0.002420
     15          1           0       -0.737276   -2.143940   -0.018013
 ---------------------------------------------------------------------

 SCF Done:  E(RM062X) =  -271.441443130     A.U. after    1 cycles

 The electronic state is 1-A.
 Alpha  occ. eigenvalues --  -10.56193 -10.55367 -10.55355 -10.55130 -10.55095
 Alpha  occ. eigenvalues --  -10.55091 -10.54522  -0.96182  -0.87051  -0.84093
 Alpha  occ. eigenvalues --   -0.77676  -0.68806  -0.66475  -0.58627  -0.52708
 Alpha  occ. eigenvalues --   -0.52585  -0.48980  -0.48588  -0.47274  -0.44951
 Alpha  occ. eigenvalues --   -0.42291  -0.39898  -0.39693  -0.30462  -0.29482
 Alpha virt. eigenvalues --    0.02043   0.02054   0.02257   0.03152   0.03615
 Alpha virt. eigenvalues --    0.04961   0.05475   0.06252   0.07402   0.08204
 Alpha virt. eigenvalues --    0.08760   0.09446   0.10202   0.11616   0.13411

 Mulliken charges:
               1
     1  C   -0.886522
     2  C    0.371419
     3  C   -0.326742
     4  C   -0.144637
     5  C   -0.216060
     6  C   -0.144574
     7  C   -0.326478
     8  H    0.238179
     9  H    0.214678
    10  H    0.214684
    11  H    0.197453
    12  H    0.203885
    13  H    0.203376
    14  H    0.203884
    15  H    0.197455
 Sum of Mulliken charges =   0.00000

 Dipole moment (field-independent basis, Debye):
    X=             -0.3746    Y=              0.0000    Z=              0.0409  Tot=              0.3768
 Quadrupole moment (field-independent basis, Debye-Ang):
   XX=            -38.3897   YY=            -38.8161   ZZ=            -46.7901
   XY=              0.0000   XZ=             -0.0463   YZ=              0.0000

  Exact polarizability:  96.434   0.000  85.277  -0.269   0.000  48.250
 Approx polarizability: 114.399   0.000 111.356  -0.227   0.000  59.845

 ******    1 imaginary frequencies (negative Signs) ******

                      1                      2                      3
                      A                      A                      A
 Frequencies --    -98.8078               209.0333               340.7731
 Red. masses --      1.0353                 2.9833                 2.4904
 Frc consts  --      0.0060                 0.0768                 0.1704
 IR Inten    --      0.3926                 2.6461                 0.3078

                      4                      5                      6
                      A                      A                      A
 Frequencies --    414.4492               471.8140               526.8549
 Red. masses --      2.8616                 2.6830                 5.0761
 Frc consts  --      0.2896                 0.3519                 0.8302
 IR Inten    --      0.0057                 9.7457                 0.6426

                      7                      8                      9
                      A                      A                      A
 Frequencies --    631.6005               709.5906               746.1163
 Red. masses --      6.3180                 2.3323                 1.3559
 Frc consts  --      1.4850                 0.6919                 0.4447
 IR Inten    --      0.0865                20.7617                63.3697

                     10                     11                     12
                      A                      A                      A
 Frequencies --    809.6141               867.9816               925.4668
 Red. masses --      4.4082                 1.2498                 1.2991
 Frc consts  --      1.7024                 0.5548                 0.6556
 IR Inten    --      0.6585                 0.0187                 0.4862

                     13                     14                     15
                      A                      A                      A
 Frequencies --    996.7429              1007.6777              1018.3943
 Red. masses --      1.3781                 1.4063                 1.4135
 Frc consts  --      0.8067                 0.8414                 0.8637
 IR Inten    --      0.0009                 0.0423                 0.0023

                     16                     17                     18
                      A                      A                      A
 Frequencies --   1019.9696              1069.5194              1070.9079
 Red. masses --      4.2248                 2.0499                 1.6169
 Frc consts  --      2.5896                 1.3815                 1.0926
 IR Inten    --      0.1506                 6.3013                 4.4883

                     19                     20                     21
                      A                      A                      A
 Frequencies --   1124.1657              1184.7477              1211.4050
 Red. masses --      1.4134                 1.1046                 1.1160
 Frc consts  --      1.0524                 0.9135                 0.9649
 IR Inten    --      5.9500                 0.0047                 0.3501

                     22                     23                     24
                      A                      A                      A
 Frequencies --   1254.2744              1348.4510              1363.6637
 Red. masses --      2.7581                 2.2877                 2.0486
 Frc consts  --      2.5565                 2.4509                 2.2445
 IR Inten    --      0.5390                 0.0456                 0.0004

                     25                     26                     27
                      A                      A                      A
 Frequencies --   1434.5107              1491.8677              1511.4469
 Red. masses --      1.2768                 1.5777                 1.0485
 Frc consts  --      1.5481                 2.0689                 1.4112
 IR Inten    --      1.0710                 0.0559                 7.7035

                     28                     29                     30
                      A                      A                      A
 Frequencies --   1525.3849              1554.6293              1679.1534
 Red. masses --      1.3576                 2.4825                 5.9259
 Frc consts  --      1.8612                 3.5350                 9.8443
 IR Inten    --     13.9282                13.9687                 0.2223

                     31                     32                     33
                      A                      A                      A
 Frequencies --   1699.1826              3068.5462              3132.1252
 Red. masses --      6.1512                 1.0375                 1.0995
 Frc consts  --     10.4638                 5.7556                 6.3551
 IR Inten    --      8.6780                24.1602                13.5519

                     34                     35                     36
                      A                      A                      A
 Frequencies --   3154.2698              3190.2744              3191.3515
 Red. masses --      1.1029                 1.0870                 1.0891
 Frc consts  --      6.4654                 6.5184                 6.5350
 IR Inten    --     12.7840                 7.7261                 6.5739

                     37                     38                     39
                      A                      A                      A
 Frequencies --   3204.7218              3213.5148              3224.7334
 Red. masses --      1.0903                 1.0948                 1.0989
 Frc consts  --      6.5977                 6.6612                 6.7326
 IR Inten    --      4.7722                27.2645                12.0462

 - Thermochemistry -
 -------------------
 Temperature   298.150 Kelvin.  Pressure   1.00000 Atm.
 Atom     1 has atomic number  6 and mass  12.00000

 Molecular mass:    92.06260 amu.
 Principal axes and moments of inertia in atomic units:
                           1         2         3
     Eigenvalues --   325.34909 716.161501030.24020
           X            1.00000   0.00000  -0.00037
           Y            0.00000   1.00000   0.00000
           Z            0.00037   0.00000   1.00000
 This molecule is an asymmetric top.
 Rotational symmetry number  1.
 Rotational temperatures (Kelvin)      0.26622     0.12094     0.08407
 Rotational constants (GHZ):           5.54709     2.52002     1.75177
    1 imaginary frequencies ignored.
 Zero-point vibrational energy     338536.8 (Joules/Mol)
                                   80.91223 (Kcal/Mol)
 Warning -- explicit consideration of   5 degrees of freedom as
           vibrations may cause significant error
 Vibrational temperatures:    300.75   490.30   596.30   678.83   758.03
          (Kelvin)            908.73  1020.94  1073.49  1164.85  1248.83
                             1331.54  1434.09  1449.82  1465.24  1467.51
                             1538.80  1540.80  1617.42  1704.59  1742.94
                             1804.62  1940.12  1962.01  2063.94  2146.46
                             2174.63  2194.69  2236.76  2415.92  2444.74
                             4414.95  4506.42  4538.29  4590.09  4591.64
                             4610.87  4623.53  4639.67

 Zero-point correction=                           0.128942 (Hartree/Particle)
 Thermal correction to Energy=                    0.134287
 Thermal correction to Enthalpy=                  0.135231
 Thermal correction to Gibbs Free Energy=         0.099993
 Sum of electronic and zero-point Energies=           -271.312501
 Sum of electronic and thermal Energies=              -271.307156
 Sum of electronic and thermal Enthalpies=            -271.306212
 Sum of electronic and thermal Free Energies=         -271.341450

                     E (Thermal)             CV                S
                      KCal/Mol        Cal/Mol-Kelvin    Cal/Mol-Kelvin
 Total                   84.266             21.108             74.164
 Electronic               0.000              0.000              0.000
 Translational            0.889              2.981             39.472
 Rotational               0.889              2.981             26.976
 Vibrational             82.489             15.146              7.717
 Vibration     1          0.642              1.827              2.052
 Vibration     2          0.720              1.594              1.209
 Vibration     3          0.778              1.439              0.911
 Vibration     4          0.829              1.313              0.732
 Vibration     5          0.882              1.191              0.594

 Optimization completed.
    -- Stationary point found.
 Normal termination of Gaussian 09 at Fri Mar 21 14:49:37 2025.
