 Gaussian 09, Revision D.01,
 Gaussian 09:  ES64L-G09RevD.01 24-Apr-2013

 ---------------------------------
 #m062X/6-31+G(d) OPT Freq=noraman
 ---------------------------------

 ------------
 nitromethane
 ------------
 Symbolic Z-matrix:
 Charge = -1 Multiplicity = 2

 SCF Done:  E(UM062X) =  -244.910599087     A.U. after   15 cycles
 SCF Done:  E(UM062X) =  -244.918056953     A.U. after   14 cycles
 SCF Done:  E(UM062X) =  -244.919233883     A.U. after   16 cycles
 SCF Done:  E(UM062X) =  -244.921127623     A.U. after   14 cycles
 SCF Done:  E(UM062X) =  -244.921228040     A.U. after   13 cycles
 SCF Done:  E(UM062X) =  -244.921237818     A.U. after   12 cycles
 SCF Done:  E(UM062X) =  -244.921238495     A.U. after   11 cycles
 Optimization completed.
    -- Stationary point found.
 Normal termination of Gaussian 09 at Tue Mar 18 20:00:08 2025.

 ---------------------------------------------------------------------
 #N Geom=AllCheck Guess=TCheck SCRF=Check GenChk UM062X/6-31+G(d) Freq
 ---------------------------------------------------------------------

 Structure from the checkpoint file:  "/srv/scratch/z5358697/gauss/Gau-3231881.chk"
 ------------
 nitromethane
 ------------
 Charge = -1 Multiplicity = 2

                         Standard orientation:
 ---------------------------------------------------------------------
 Center     Atomic      Atomic             Coordinates (Angstroms)
 Number     Number       Type             X           Y           Z
 ---------------------------------------------------------------------
      1          6           0        1.291764    0.000373    0.029373
      2          7           0       -0.150950   -0.000016   -0.197178
      3          8           0       -0.727177    1.139471    0.057517
      4          8           0       -0.726405   -1.139899    0.057504
      5          1           0        1.491907   -0.000628    1.114801
      6          1           0        1.720998    0.902439   -0.414649
      7          1           0        1.721815   -0.900514   -0.416309
 ---------------------------------------------------------------------

 SCF Done:  E(UM062X) =  -244.921238495     A.U. after    1 cycles

 The electronic state is 2-A.
 Alpha  occ. eigenvalues --  -19.39682 -19.39680 -14.67997 -10.40049  -1.02688
 Alpha  occ. eigenvalues --   -0.85828  -0.68077  -0.49065  -0.37108  -0.34940
 Alpha  occ. eigenvalues --   -0.34657  -0.28007  -0.26240  -0.14529  -0.12147
 Alpha  occ. eigenvalues --   -0.10335  -0.00524
 Alpha virt. eigenvalues --    0.16301   0.19206   0.19841   0.21795   0.29126
 Alpha virt. eigenvalues --    0.29130   0.34410   0.36893   0.37338   0.39434
 Alpha virt. eigenvalues --    0.41502   0.43134   0.44476   0.45152   0.45391

  Beta  occ. eigenvalues --  -19.39089 -19.39086 -14.67054 -10.40029  -1.00490
  Beta  occ. eigenvalues --   -0.83788  -0.66975  -0.46808  -0.34254  -0.33835
  Beta  occ. eigenvalues --   -0.33412  -0.26925  -0.22729  -0.11257  -0.09568
  Beta  occ. eigenvalues --   -0.07577
  Beta virt. eigenvalues --    0.15607   0.17955   0.18924   0.19016   0.23659
  Beta virt. eigenvalues --    0.28682   0.29246   0.33198   0.36813   0.36882
  Beta virt. eigenvalues --    0.39604   0.41040   0.43060   0.44153   0.44621

 Mulliken charges and spin densities:
               1          2
     1  C   -0.542286   0.006780
     2  N   -0.095304   0.413176
     3  O   -0.446417   0.265608
     4  O   -0.446448   0.265541
     5  H    0.173888   0.045681
     6  H    0.178306   0.001594
     7  H    0.178260   0.001618
 Sum of Mulliken charges =  -1.00000   1.00000

 Dipole moment (field-independent basis, Debye):
    X=              4.5235    Y=              0.0017    Z=             -0.4152  Tot=              4.5426
 Quadrupole moment (field-independent basis, Debye-Ang):
   XX=            -30.7407   YY=            -35.8361   ZZ=            -27.1235
   XY=              0.0020   XZ=             -0.0191   YZ=              0.0000

  Exact polarizability:  43.331  -0.006  51.039   2.385   0.000  32.752
 Approx polarizability:  41.589  -0.007  54.718   1.731  -0.001  34.143

                      1                      2                      3
                      A                      A                      A
 Frequencies --    207.9218               435.1162               454.0311
 Red. masses --      1.0916                 4.3778                 3.1002
 Frc consts  --      0.0278                 0.4883                 0.3765
 IR Inten    --      1.0472                 4.7906                 3.1285

                      4                      5                      6
                      A                      A                      A
 Frequencies --    599.4267               905.9895              1079.9599
 Red. masses --      8.7787                 6.5298                 1.6091
 Frc consts  --      1.8585                 3.1579                 1.1057
 IR Inten    --     14.7605                11.7696                93.3964

                      7                      8                      9
                      A                      A                      A
 Frequencies --   1118.0600              1308.3231              1347.8265
 Red. masses --      1.3948                11.8571                 5.4090
 Frc consts  --      1.0273                11.9580                 5.7894
 IR Inten    --      9.2998                74.1680               355.7992

                     10                     11                     12
                      A                      A                      A
 Frequencies --   1411.9318              1490.8879              1506.2925
 Red. masses --      1.2191                 1.0524                 1.0656
 Frc consts  --      1.4320                 1.3783                 1.4245
 IR Inten    --      0.2106                 3.1827                 7.4970

                     13                     14                     15
                      A                      A                      A
 Frequencies --   2991.3743              3106.8554              3158.8364
 Red. masses --      1.0529                 1.0749                 1.1063
 Frc consts  --      5.5511                 6.1130                 6.5039
 IR Inten    --    140.4651                58.7760                33.3988

 - Thermochemistry -
 -------------------
 Temperature   298.150 Kelvin.  Pressure   1.00000 Atm.
 Atom     1 has atomic number  6 and mass  12.00000

 Molecular mass:    61.01638 amu.
 Principal axes and moments of inertia in atomic units:
                           1         2         3
     Eigenvalues --   162.29524 168.99986 315.16649
           X            0.99998   0.00092   0.00591
           Y           -0.00092   1.00000   0.00000
           Z           -0.00591  -0.00001   0.99998
 This molecule is an asymmetric top.
 Rotational symmetry number  1.
 Rotational temperatures (Kelvin)      0.53368     0.51251     0.27482
 Rotational constants (GHZ):          11.12011    10.67895     5.72631
 Zero-point vibrational energy     126342.6 (Joules/Mol)
                                   30.19661 (Kcal/Mol)
 Warning -- explicit consideration of   4 degrees of freedom as
           vibrations may cause significant error
 Vibrational temperatures:    299.15   626.03   653.25   862.44  1303.52
          (Kelvin)           1553.82  1608.64  1882.38  1939.22  2031.45
                             2145.05  2167.22  4303.92  4470.07  4544.86

 Zero-point correction=                           0.048121 (Hartree/Particle)
 Thermal correction to Energy=                    0.052340
 Thermal correction to Enthalpy=                  0.053284
 Thermal correction to Gibbs Free Energy=         0.021077
 Sum of electronic and zero-point Energies=           -244.873117
 Sum of electronic and thermal Energies=              -244.868899
 Sum of electronic and thermal Enthalpies=            -244.867955
 Sum of electronic and thermal Free Energies=         -244.900162

                     E (Thermal)             CV                S
                      KCal/Mol        Cal/Mol-Kelvin    Cal/Mol-Kelvin
 Total                   32.844             13.146             67.786
 Electronic               0.000              0.000              1.377
 Translational            0.889              2.981             38.245
 Rotational               0.889              2.981             23.673
 Vibrational             31.066              7.185              4.490
 Vibration     1          0.641              1.829              2.062
 Vibration     2          0.796              1.394              0.842
 Vibration     3          0.812              1.352              0.784
 Vibration     4          0.957              1.033              0.451

 Optimization completed.
    -- Stationary point found.
 Normal termination of Gaussian 09 at Tue Mar 18 20:01:04 2025.
