 Gaussian 09, Revision D.01,
 Gaussian 09:  ES64L-G09RevD.01 24-Apr-2013

 ---------------------------------
 #m062X/6-31+G(d) OPT Freq=noraman
 ---------------------------------

 -----------------
 N-methylacetamide
 -----------------
 Symbolic Z-matrix:
 Charge =  0 Multiplicity = 1

 SCF Done:  E(RM062X) =  -248.409776009     A.U. after   13 cycles
 SCF Done:  E(RM062X) =  -248.413810599     A.U. after   12 cycles
 SCF Done:  E(RM062X) =  -248.414052001     A.U. after   11 cycles
 SCF Done:  E(RM062X) =  -248.414149971     A.U. after   11 cycles
 SCF Done:  E(RM062X) =  -248.414228444     A.U. after   11 cycles
 SCF Done:  E(RM062X) =  -248.414277684     A.U. after   11 cycles
 SCF Done:  E(RM062X) =  -248.414360880     A.U. after   12 cycles
 SCF Done:  E(RM062X) =  -248.414387419     A.U. after   11 cycles
 SCF Done:  E(RM062X) =  -248.414410136     A.U. after   10 cycles
 SCF Done:  E(RM062X) =  -248.414509882     A.U. after   12 cycles
 SCF Done:  E(RM062X) =  -248.414560872     A.U. after   12 cycles
 SCF Done:  E(RM062X) =  -248.414605779     A.U. after   13 cycles
 SCF Done:  E(RM062X) =  -248.414601972     A.U. after   11 cycles
 SCF Done:  E(RM062X) =  -248.414600916     A.U. after    9 cycles
 SCF Done:  E(RM062X) =  -248.414606662     A.U. after   10 cycles
 SCF Done:  E(RM062X) =  -248.414607676     A.U. after   10 cycles
 SCF Done:  E(RM062X) =  -248.414607782     A.U. after    9 cycles
 SCF Done:  E(RM062X) =  -248.414607879     A.U. after    9 cycles
 SCF Done:  E(RM062X) =  -248.414607946     A.U. after    9 cycles
 Optimization completed.
    -- Stationary point found.
 Normal termination of Gaussian 09 at Thu Mar 20 23:32:15 2025.

 ---------------------------------------------------------------------
 #N Geom=AllCheck Guess=TCheck SCRF=Check GenChk RM062X/6-31+G(d) Freq
 ---------------------------------------------------------------------

 Structure from the checkpoint file:  "/srv/scratch/z5358697/gauss/Gau-3810713.chk"
 -----------------
 N-methylacetamide
 -----------------
 Charge =  0 Multiplicity = 1

                         Standard orientation:
 ---------------------------------------------------------------------
 Center     Atomic      Atomic             Coordinates (Angstroms)
 Number     Number       Type             X           Y           Z
 ---------------------------------------------------------------------
      1          6           0       -1.832073   -0.522426    0.000015
      2          6           0       -0.477999    0.156948    0.000016
      3          8           0       -0.362160    1.373274    0.000000
      4          7           0        0.608611   -0.661615   -0.000073
      5          6           0        1.947585   -0.103220    0.000019
      6          1           0       -2.386416   -0.193768   -0.882566
      7          1           0       -1.772344   -1.613964    0.000218
      8          1           0       -2.386649   -0.193396    0.882301
      9          1           0        0.483211   -1.661927    0.000245
     10          1           0        2.102214    0.519302    0.886089
     11          1           0        2.101323    0.521199   -0.884849
     12          1           0        2.670587   -0.920140   -0.001220
 ---------------------------------------------------------------------

 SCF Done:  E(RM062X) =  -248.414607946     A.U. after    1 cycles

 The electronic state is 1-A.
 Alpha  occ. eigenvalues --  -19.60796 -14.79329 -10.65318 -10.58110 -10.55420
 Alpha  occ. eigenvalues --   -1.15834  -1.03198  -0.85161  -0.78191  -0.67125
 Alpha  occ. eigenvalues --   -0.58274  -0.54524  -0.53877  -0.49289  -0.48082
 Alpha  occ. eigenvalues --   -0.46773  -0.45890  -0.42114  -0.32694  -0.31869
 Alpha virt. eigenvalues --    0.01122   0.03259   0.04431   0.04857   0.06393
 Alpha virt. eigenvalues --    0.06595   0.07284   0.08518   0.09454   0.09969
 Alpha virt. eigenvalues --    0.11325   0.11960   0.16602   0.16951   0.17647

 Mulliken charges:
               1
     1  C   -0.789246
     2  C    0.588584
     3  O   -0.522268
     4  N   -0.577071
     5  C   -0.468688
     6  H    0.247371
     7  H    0.196740
     8  H    0.247368
     9  H    0.410412
    10  H    0.234000
    11  H    0.234076
    12  H    0.198722
 Sum of Mulliken charges =   0.00000

 Dipole moment (field-independent basis, Debye):
    X=              0.6532    Y=             -3.9514    Z=              0.0004  Tot=              4.0050
 Quadrupole moment (field-independent basis, Debye-Ang):
   XX=            -26.7551   YY=            -33.7625   ZZ=            -31.6101
   XY=              0.7881   XZ=             -0.0002   YZ=             -0.0012

  Exact polarizability:  53.740  -1.992  48.567   0.002   0.001  35.699
 Approx polarizability:  51.260  -3.581  59.546   0.002   0.001  41.495

                      1                      2                      3
                      A                      A                      A
 Frequencies --     29.1231                62.1109               161.1549
 Red. masses --      1.1289                 1.0590                 2.7780
 Frc consts  --      0.0006                 0.0024                 0.0425
 IR Inten    --      9.4567                 1.1543                15.9854

                      4                      5                      6
                      A                      A                      A
 Frequencies --    270.3680               353.0333               431.1883
 Red. masses --      3.1385                 1.1316                 3.0506
 Frc consts  --      0.1352                 0.0831                 0.3342
 IR Inten    --      6.2251                80.1657                 8.9487

                      7                      8                      9
                      A                      A                      A
 Frequencies --    634.9815               635.2444               896.7774
 Red. masses --      3.9058                 2.4482                 2.5755
 Frc consts  --      0.9278                 0.5821                 1.2203
 IR Inten    --      6.6662                 0.0119                 5.7455

                     10                     11                     12
                      A                      A                      A
 Frequencies --   1010.7962              1068.0007              1129.4922
 Red. masses --      1.6405                 1.7459                 2.7563
 Frc consts  --      0.9875                 1.1733                 2.0718
 IR Inten    --     10.3436                 6.8322                 2.0730

                     13                     14                     15
                      A                      A                      A
 Frequencies --   1162.6508              1207.3412              1304.8130
 Red. masses --      1.2854                 1.9573                 1.7002
 Frc consts  --      1.0237                 1.6810                 1.7054
 IR Inten    --      0.0002                 1.6638                59.7265

                     16                     17                     18
                      A                      A                      A
 Frequencies --   1422.1152              1472.3442              1496.1297
 Red. masses --      1.2721                 1.1900                 1.0442
 Frc consts  --      1.5158                 1.5198                 1.3772
 IR Inten    --     28.1521                 7.7641                 5.7676

                     19                     20                     21
                      A                      A                      A
 Frequencies --   1501.5724              1510.5023              1531.7485
 Red. masses --      1.0383                 1.0836                 1.1088
 Frc consts  --      1.3793                 1.4567                 1.5327
 IR Inten    --     10.9296                33.7529                 9.1105

                     22                     23                     24
                      A                      A                      A
 Frequencies --   1578.2755              1808.3126              3088.9535
 Red. masses --      2.0988                 9.4320                 1.0325
 Frc consts  --      3.0802                18.1719                 5.8045
 IR Inten    --    266.4715               328.0966                32.6340

                     25                     26                     27
                      A                      A                      A
 Frequencies --   3092.3647              3156.7897              3174.4803
 Red. masses --      1.0361                 1.1051                 1.1036
 Frc consts  --      5.8377                 6.4884                 6.5526
 IR Inten    --      8.3339                15.3582                13.8606

                     28                     29                     30
                      A                      A                      A
 Frequencies --   3180.7320              3186.1298              3692.2009
 Red. masses --      1.1016                 1.1051                 1.0794
 Frc consts  --      6.5665                 6.6096                 8.6698
 IR Inten    --      2.1351                14.5679                40.2843

 - Thermochemistry -
 -------------------
 Temperature   298.150 Kelvin.  Pressure   1.00000 Atm.
 Atom     1 has atomic number  6 and mass  12.00000

 Molecular mass:    73.05276 amu.
 Principal axes and moments of inertia in atomic units:
                           1         2         3
     Eigenvalues --   177.73207 464.32186 619.55659
           X            0.99945   0.03304   0.00000
           Y           -0.03304   0.99945  -0.00001
           Z            0.00000   0.00001   1.00000
 This molecule is an asymmetric top.
 Rotational symmetry number  1.
 Rotational temperatures (Kelvin)      0.48733     0.18654     0.13980
 Rotational constants (GHZ):          10.15428     3.88683     2.91296
 Zero-point vibrational energy     270653.5 (Joules/Mol)
                                   64.68773 (Kcal/Mol)
 Warning -- explicit consideration of   6 degrees of freedom as
           vibrations may cause significant error
 Vibrational temperatures:     41.90    89.36   231.87   389.00   507.94
          (Kelvin)            620.38   913.60   913.97  1290.26  1454.31
                             1536.61  1625.09  1672.79  1737.09  1877.33
                             2046.10  2118.37  2152.59  2160.43  2173.27
                             2203.84  2270.78  2601.76  4444.31  4449.22
                             4541.91  4567.36  4576.36  4584.12  5312.25

 Zero-point correction=                           0.103086 (Hartree/Particle)
 Thermal correction to Energy=                    0.109836
 Thermal correction to Enthalpy=                  0.110780
 Thermal correction to Gibbs Free Energy=         0.071828
 Sum of electronic and zero-point Energies=           -248.311521
 Sum of electronic and thermal Energies=              -248.304772
 Sum of electronic and thermal Enthalpies=            -248.303828
 Sum of electronic and thermal Free Energies=         -248.342780

                     E (Thermal)             CV                S
                      KCal/Mol        Cal/Mol-Kelvin    Cal/Mol-Kelvin
 Total                   68.923             20.987             81.981
 Electronic               0.000              0.000              0.000
 Translational            0.889              2.981             38.782
 Rotational               0.889              2.981             25.439
 Vibrational             67.145             15.025             17.760
 Vibration     1          0.593              1.984              5.888
 Vibration     2          0.597              1.972              4.389
 Vibration     3          0.622              1.890              2.536
 Vibration     4          0.674              1.728              1.594
 Vibration     5          0.729              1.569              1.153
 Vibration     6          0.792              1.402              0.855

 Normal termination of Gaussian 09 at Thu Mar 20 23:33:55 2025.
