 Gaussian 09, Revision D.01,
 Gaussian 09:  ES64L-G09RevD.01 24-Apr-2013

 ---------------------------------
 #m062X/6-31+G(d) OPT Freq=noraman
 ---------------------------------

 ------------
 acetaldehyde
 ------------
 Symbolic Z-matrix:
 Charge =  0 Multiplicity = 1

 SCF Done:  E(RM062X) =  -153.758426468     A.U. after   13 cycles
 SCF Done:  E(RM062X) =  -153.759304799     A.U. after   11 cycles
 SCF Done:  E(RM062X) =  -153.757935878     A.U. after   12 cycles
 SCF Done:  E(RM062X) =  -153.759463507     A.U. after    9 cycles
 SCF Done:  E(RM062X) =  -153.759610544     A.U. after   11 cycles
 SCF Done:  E(RM062X) =  -153.759855377     A.U. after   11 cycles
 SCF Done:  E(RM062X) =  -153.759996090     A.U. after   12 cycles
 SCF Done:  E(RM062X) =  -153.760064722     A.U. after    9 cycles
 SCF Done:  E(RM062X) =  -153.760090400     A.U. after   11 cycles
 SCF Done:  E(RM062X) =  -153.760111006     A.U. after   11 cycles
 SCF Done:  E(RM062X) =  -153.760111301     A.U. after    9 cycles
 Optimization completed.
    -- Stationary point found.

 1\1\GINC-KATANA2\FOpt\RM062X\6-31+G(d)\C2H4O1\Z5358697\18-Mar-2025\0\\
 #m062X/6-31+G(d) OPT Freq=noraman\\acetaldehyde\\0,1\C,-0.5785505648,-
 0.928181942,-0.0270389605\C,-1.5046674521,-0.9717830814,1.1568657655\O
 ,-1.3099078542,-1.6322014269,2.1481788242\H,-1.1166059691,-1.247443545
 7,-0.9269591751\H,-0.2488622148,0.1029505472,-0.1984339766\H,0.2849418
 163,-1.5738899749,0.1413875297\H,-2.4168477613,-0.3442505763,1.0812999
 928\\Version=ES64L-G09RevD.01\State=1-A\HF=-153.7601113\RMSD=4.785e-09
 \RMSF=1.502e-05\Dipole=-0.0270096,0.5640912,-1.0127138\Quadrupole=0.94

 Normal termination of Gaussian 09 at Tue Mar 18 20:02:28 2025.

 ---------------------------------------------------------------------
 #N Geom=AllCheck Guess=TCheck SCRF=Check GenChk RM062X/6-31+G(d) Freq
 ---------------------------------------------------------------------

 Structure from the checkpoint file:  "/srv/scratch/z5358697/gauss/Gau-848564.chk"
 ------------
 acetaldehyde
 ------------
 Charge =  0 Multiplicity = 1

                         Standard orientation:
 ---------------------------------------------------------------------
 Center     Atomic      Atomic             Coordinates (Angstroms)
 Number     Number       Type             X           Y           Z
 ---------------------------------------------------------------------
      1          6           0       -1.166788   -0.147160   -0.000001
      2          6           0        0.233298    0.401458    0.000018
      3          8           0        1.230013   -0.279237   -0.000002
      4          1           0       -1.705377    0.218953    0.881573
      5          1           0       -1.705607    0.219591   -0.881179
      6          1           0       -1.147880   -1.238291   -0.000417
      7          1           0        0.319702    1.507855   -0.000061
 ---------------------------------------------------------------------

 SCF Done:  E(RM062X) =  -153.760111301     A.U. after    1 cycles

 The electronic state is 1-A.
 Alpha  occ. eigenvalues --  -19.65629 -10.65015 -10.56129  -1.18154  -0.85580
 Alpha  occ. eigenvalues --   -0.67270  -0.56455  -0.52117  -0.51871  -0.47057
 Alpha  occ. eigenvalues --   -0.43833  -0.33579
 Alpha virt. eigenvalues --    0.01178   0.02585   0.03731   0.05420   0.05799
 Alpha virt. eigenvalues --    0.08474   0.08757   0.09666   0.15057   0.19639
 Alpha virt. eigenvalues --    0.20359   0.24106   0.25554   0.28404   0.28551

 Mulliken charges:
               1
     1  C   -0.799748
     2  C    0.299919
     3  O   -0.373344
     4  H    0.231176
     5  H    0.231155
     6  H    0.246107
     7  H    0.164735
 Sum of Mulliken charges =   0.00000

 Dipole moment (field-independent basis, Debye):
    X=             -2.6672    Y=              1.2539    Z=              0.0001  Tot=              2.9472
 Quadrupole moment (field-independent basis, Debye-Ang):
   XX=            -21.3062   YY=            -18.0993   ZZ=            -18.0760
   XY=              1.0718   XZ=             -0.0001   YZ=              0.0001

  Exact polarizability:  32.422  -2.512  27.914  -0.001   0.000  20.194
 Approx polarizability:  35.538  -5.697  30.743  -0.001   0.000  22.669

                      1                      2                      3
                      A                      A                      A
 Frequencies --    136.3419               511.5885               780.4946
 Red. masses --      1.2400                 2.5014                 1.1238
 Frc consts  --      0.0136                 0.3857                 0.4033
 IR Inten    --      1.2366                14.4008                 1.0611

                      4                      5                      6
                      A                      A                      A
 Frequencies --    908.6522              1143.0028              1145.6426
 Red. masses --      2.0544                 2.1064                 1.7614
 Frc consts  --      0.9994                 1.6214                 1.3621
 IR Inten    --      5.3496                25.8925                 0.1876

                      7                      8                      9
                      A                      A                      A
 Frequencies --   1399.2463              1441.1287              1485.4878
 Red. masses --      1.2575                 1.2372                 1.0480
 Frc consts  --      1.4506                 1.5140                 1.3626
 IR Inten    --     19.8093                18.3527                23.4085

                     10                     11                     12
                      A                      A                      A
 Frequencies --   1491.6930              1881.6909              2992.9961
 Red. masses --      1.0464                 9.9180                 1.0842
 Frc consts  --      1.3719                20.6904                 5.7225
 IR Inten    --     13.3451               203.5612               112.0292

                     13                     14                     15
                      A                      A                      A
 Frequencies --   3072.2298              3141.9786              3188.5429
 Red. masses --      1.0367                 1.0997                 1.1040
 Frc consts  --      5.7653                 6.3966                 6.6130
 IR Inten    --      1.7152                 4.4044                 5.7864

 - Thermochemistry -
 -------------------
 Temperature   298.150 Kelvin.  Pressure   1.00000 Atm.
 Atom     1 has atomic number  6 and mass  12.00000

 Molecular mass:    44.02621 amu.
 Principal axes and moments of inertia in atomic units:
                           1         2         3
     Eigenvalues --    31.78566 177.39854 198.00103
           X            0.99965   0.02644   0.00000
           Y           -0.02644   0.99965  -0.00001
           Z            0.00000   0.00001   1.00000
 This molecule is an asymmetric top.
 Rotational symmetry number  1.
 Rotational temperatures (Kelvin)      2.72493     0.48824     0.43744
 Rotational constants (GHZ):          56.77847    10.17337     9.11481
 Zero-point vibrational energy     147862.7 (Joules/Mol)
                                   35.34004 (Kcal/Mol)
 Warning -- explicit consideration of   2 degrees of freedom as
           vibrations may cause significant error
 Vibrational temperatures:    196.17   736.06  1122.96  1307.35  1644.52
          (Kelvin)           1648.32  2013.20  2073.46  2137.28  2146.21
                             2707.33  4306.25  4420.25  4520.60  4587.60

 Zero-point correction=                           0.056318 (Hartree/Particle)
 Thermal correction to Energy=                    0.060237
 Thermal correction to Enthalpy=                  0.061181
 Thermal correction to Gibbs Free Energy=         0.031286
 Sum of electronic and zero-point Energies=           -153.703793
 Sum of electronic and thermal Energies=              -153.699874
 Sum of electronic and thermal Enthalpies=            -153.698930
 Sum of electronic and thermal Free Energies=         -153.728825

                     E (Thermal)             CV                S
                      KCal/Mol        Cal/Mol-Kelvin    Cal/Mol-Kelvin
 Total                   37.799             11.136             62.919
 Electronic               0.000              0.000              0.000
 Translational            0.889              2.981             37.273
 Rotational               0.889              2.981             21.640
 Vibrational             36.022              5.175              4.007
 Vibration     1          0.614              1.917              2.855
 Vibration     2          0.867              1.224              0.630

 Optimization completed.
    -- Stationary point found.

 1\1\GINC-KATANA2\Freq\RM062X\6-31+G(d)\C2H4O1\Z5358697\18-Mar-2025\0\\
 #N Geom=AllCheck Guess=TCheck SCRF=Check GenChk RM062X/6-31+G(d) Freq\
 \acetaldehyde\\0,1\C,-0.5785505648,-0.928181942,-0.0270389605\C,-1.504
 6674521,-0.9717830814,1.1568657655\O,-1.3099078542,-1.6322014269,2.148
 1788242\H,-1.1166059691,-1.2474435457,-0.9269591751\H,-0.2488622148,0.
 1029505472,-0.1984339766\H,0.2849418163,-1.5738899749,0.1413875297\H,-
 2.4168477613,-0.3442505763,1.0812999928\\Version=ES64L-G09RevD.01\Stat
 e=1-A\HF=-153.7601113\RMSD=1.313e-09\RMSF=1.502e-05\ZeroPoint=0.056317

 Normal termination of Gaussian 09 at Tue Mar 18 20:02:52 2025.
