 Gaussian 09, Revision D.01,
 Gaussian 09:  ES64L-G09RevD.01 24-Apr-2013

 -------------------------------
 #m062X/def2SVP OPT Freq=noraman
 -------------------------------

 -------------
 2-iodopropane
 -------------
 Symbolic Z-matrix:
 Charge =  0 Multiplicity = 1

 SCF Done:  E(RM062X) =  -416.002090993     A.U. after   15 cycles
 SCF Done:  E(RM062X) =  -416.003388055     A.U. after   14 cycles
 SCF Done:  E(RM062X) =  -416.003546419     A.U. after   13 cycles
 SCF Done:  E(RM062X) =  -416.003556342     A.U. after    9 cycles
 SCF Done:  E(RM062X) =  -416.003558144     A.U. after    8 cycles
 Optimization completed.
    -- Stationary point found.
 Normal termination of Gaussian 09 at Thu Mar 20 23:08:07 2025.

 -------------------------------------------------------------------
 #N Geom=AllCheck Guess=TCheck SCRF=Check GenChk RM062X/def2SVP Freq
 -------------------------------------------------------------------

 Structure from the checkpoint file:  "/srv/scratch/z5358697/gauss/Gau-4056048.chk"
 -------------
 2-iodopropane
 -------------
 Charge =  0 Multiplicity = 1

                         Standard orientation:
 ---------------------------------------------------------------------
 Center     Atomic      Atomic             Coordinates (Angstroms)
 Number     Number       Type             X           Y           Z
 ---------------------------------------------------------------------
      1          6           0       -1.927642   -1.267088   -0.130886
      2          6           0       -1.298852    0.000000    0.415507
      3          6           0       -1.927645    1.267087   -0.130887
      4         53           0        0.846187    0.000000   -0.015475
      5          1           0       -1.459589   -2.168962    0.283578
      6          1           0       -2.997075   -1.277038    0.136024
      7          1           0       -1.847997   -1.304017   -1.226739
      8          1           0       -1.313735   -0.000001    1.512021
      9          1           0       -1.459589    2.168961    0.283572
     10          1           0       -2.997077    1.277039    0.136032
     11          1           0       -1.848008    1.304012   -1.226740
 ---------------------------------------------------------------------

 SCF Done:  E(RM062X) =  -416.003558144     A.U. after    1 cycles

 The electronic state is 1-A.
 Alpha  occ. eigenvalues --  -10.61248 -10.56205 -10.56203  -7.08311  -5.07850
 Alpha  occ. eigenvalues --   -5.06582  -5.06582  -2.04679  -2.04234  -2.04232
 Alpha  occ. eigenvalues --   -2.03190  -2.03190  -0.90662  -0.78466  -0.76372
 Alpha  occ. eigenvalues --   -0.65416  -0.54181  -0.51593  -0.49044  -0.46352
 Alpha  occ. eigenvalues --   -0.42601  -0.42496  -0.36534  -0.30183  -0.30169
 Alpha virt. eigenvalues --    0.00711   0.09062   0.13370   0.14123   0.15518
 Alpha virt. eigenvalues --    0.16783   0.18864   0.19659   0.22575   0.25786
 Alpha virt. eigenvalues --    0.32895   0.38899   0.40216   0.41250   0.42585

 Mulliken charges:
               1
     1  C   -0.020324
     2  C   -0.357133
     3  C   -0.020324
     4  I   -0.060142
     5  H    0.065540
     6  H    0.052653
     7  H    0.059180
     8  H    0.103177
     9  H    0.065540
    10  H    0.052653
    11  H    0.059180
 Sum of Mulliken charges =   0.00000

 Dipole moment (field-independent basis, Debye):
    X=             -2.2045    Y=              0.0000    Z=              0.3077  Tot=              2.2259
 Quadrupole moment (field-independent basis, Debye-Ang):
   XX=            -43.7835   YY=            -47.3212   ZZ=            -47.4279
   XY=              0.0000   XZ=             -0.9547   YZ=              0.0000

  Exact polarizability:  79.292   0.000  51.662  -2.120   0.000  45.583
 Approx polarizability:  94.969   0.000  60.726  -4.471   0.000  59.384

                      1                      2                      3
                      A                      A                      A
 Frequencies --    245.0500               254.1240               266.6983
 Red. masses --      1.0833                 1.8201                 2.5123
 Frc consts  --      0.0383                 0.0693                 0.1053
 IR Inten    --      0.0808                 1.2108                 0.0451

                      4                      5                      6
                      A                      A                      A
 Frequencies --    292.3744               396.1948               516.9850
 Red. masses --      1.3941                 2.1783                 2.8994
 Frc consts  --      0.0702                 0.2015                 0.4566
 IR Inten    --      0.6124                 1.1165                14.7237

                      7                      8                      9
                      A                      A                      A
 Frequencies --    913.3542               928.3451               953.8881
 Red. masses --      2.3325                 1.1318                 1.3581
 Frc consts  --      1.1465                 0.5747                 0.7281
 IR Inten    --      6.2947                 2.1170                 0.0116

                     10                     11                     12
                      A                      A                      A
 Frequencies --   1034.2362              1157.0112              1171.7230
 Red. masses --      1.2247                 2.0106                 1.9108
 Frc consts  --      0.7718                 1.5858                 1.5456
 IR Inten    --      7.5678                 0.0851                58.6637

                     13                     14                     15
                      A                      A                      A
 Frequencies --   1225.4000              1339.8141              1397.8094
 Red. masses --      1.3333                 1.2992                 1.4756
 Frc consts  --      1.1796                 1.3741                 1.6987
 IR Inten    --     65.0947                 0.0007                12.4412

                     16                     17                     18
                      A                      A                      A
 Frequencies --   1400.5746              1454.0510              1459.1519
 Red. masses --      1.2620                 1.0618                 1.0429
 Frc consts  --      1.4585                 1.3227                 1.3082
 IR Inten    --      4.7146                 3.3926                 0.1258

                     19                     20                     21
                      A                      A                      A
 Frequencies --   1465.9411              1479.3798              3048.8082
 Red. masses --      1.0451                 1.0466                 1.0383
 Frc consts  --      1.3233                 1.3495                 5.6863
 IR Inten    --     11.5988                 6.6699                 8.8141

                     22                     23                     24
                      A                      A                      A
 Frequencies --   3051.7542              3132.0824              3137.2043
 Red. masses --      1.0383                 1.0959                 1.1020
 Frc consts  --      5.6975                 6.3340                 6.3903
 IR Inten    --     25.6696                 3.0250                 0.8698

                     25                     26                     27
                      A                      A                      A
 Frequencies --   3147.1379              3168.6969              3171.4796
 Red. masses --      1.0948                 1.1055                 1.1042
 Frc consts  --      6.3887                 6.5397                 6.5439
 IR Inten    --     14.2634                 4.9399                 9.2884

 - Thermochemistry -
 -------------------
 Temperature   298.150 Kelvin.  Pressure   1.00000 Atm.
 Atom     1 has atomic number  6 and mass  12.00000

 Molecular mass:   169.95518 amu.
 Principal axes and moments of inertia in atomic units:
                           1         2         3
     Eigenvalues --   224.16759 833.924931000.64163
           X            0.99999   0.00000   0.00520
           Y            0.00000   1.00000   0.00000
           Z           -0.00520   0.00000   0.99999
 This molecule is an asymmetric top.
 Rotational symmetry number  1.
 Rotational temperatures (Kelvin)      0.38638     0.10386     0.08656
 Rotational constants (GHZ):           8.05086     2.16415     1.80358
 Zero-point vibrational energy     246486.2 (Joules/Mol)
                                   58.91161 (Kcal/Mol)
 Warning -- explicit consideration of   6 degrees of freedom as
           vibrations may cause significant error
 Vibrational temperatures:    352.57   365.63   383.72   420.66   570.04
          (Kelvin)            743.83  1314.11  1335.68  1372.43  1488.03
                             1664.68  1685.85  1763.08  1927.69  2011.13
                             2015.11  2092.05  2099.39  2109.16  2128.49
                             4386.55  4390.79  4506.36  4513.73  4528.02
                             4559.04  4563.05

 Zero-point correction=                           0.093882 (Hartree/Particle)
 Thermal correction to Energy=                    0.099384
 Thermal correction to Enthalpy=                  0.100328
 Thermal correction to Gibbs Free Energy=         0.063807
 Sum of electronic and zero-point Energies=           -415.909677
 Sum of electronic and thermal Energies=              -415.904175
 Sum of electronic and thermal Enthalpies=            -415.903230
 Sum of electronic and thermal Free Energies=         -415.939751

                     E (Thermal)             CV                S
                      KCal/Mol        Cal/Mol-Kelvin    Cal/Mol-Kelvin
 Total                   62.364             18.647             76.864
 Electronic               0.000              0.000              0.000
 Translational            0.889              2.981             41.299
 Rotational               0.889              2.981             26.728
 Vibrational             60.587             12.685              8.837
 Vibration     1          0.660              1.771              1.766
 Vibration     2          0.665              1.756              1.702
 Vibration     3          0.672              1.734              1.618
 Vibration     4          0.688              1.688              1.460
 Vibration     5          0.763              1.478              0.977
 Vibration     6          0.872              1.212              0.617

 Optimization completed.
    -- Stationary point found.
 Normal termination of Gaussian 09 at Thu Mar 20 23:09:38 2025.
