 Gaussian 09, Revision D.01,
 Gaussian 09:  ES64L-G09RevD.01 24-Apr-2013

 ---------------------------------
 #m062X/6-31+G(d) OPT Freq=noraman
 ---------------------------------

 ---------------------
 4-hydroxybenzonitrile
 ---------------------
 Symbolic Z-matrix:
 Charge =  0 Multiplicity = 1

 SCF Done:  E(RM062X) =  -399.559777514     A.U. after   14 cycles
 SCF Done:  E(RM062X) =  -399.560732360     A.U. after   12 cycles
 SCF Done:  E(RM062X) =  -399.560793442     A.U. after   11 cycles
 SCF Done:  E(RM062X) =  -399.560799067     A.U. after   11 cycles
 SCF Done:  E(RM062X) =  -399.560799435     A.U. after   10 cycles
 Optimization completed.
    -- Stationary point found.
 Normal termination of Gaussian 09 at Fri Mar 21 11:59:35 2025.

 ---------------------------------------------------------------------
 #N Geom=AllCheck Guess=TCheck SCRF=Check GenChk RM062X/6-31+G(d) Freq
 ---------------------------------------------------------------------

 Structure from the checkpoint file:  "/srv/scratch/z5358697/gauss/Gau-4149316.chk"
 ---------------------
 4-hydroxybenzonitrile
 ---------------------
 Charge =  0 Multiplicity = 1

                         Standard orientation:
 ---------------------------------------------------------------------
 Center     Atomic      Atomic             Coordinates (Angstroms)
 Number     Number       Type             X           Y           Z
 ---------------------------------------------------------------------
      1          6           0        0.376390    1.215001   -0.000001
      2          6           0       -1.008995    1.223374    0.000000
      3          6           0       -1.708965    0.013479    0.000002
      4          6           0       -1.020346   -1.201995    0.000000
      5          6           0        0.368503   -1.207788   -0.000001
      6          6           0        1.074763   -0.000736    0.000001
      7          6           0        2.512522   -0.008150    0.000001
      8          7           0        3.670598   -0.015712   -0.000001
      9          8           0       -3.063275    0.087195   -0.000003
     10          1           0        0.928538    2.149415    0.000001
     11          1           0       -1.569624    2.152100    0.000001
     12          1           0       -1.569172   -2.140675   -0.000003
     13          1           0        0.910785   -2.147970   -0.000001
     14          1           0       -3.451744   -0.799563    0.000016
 ---------------------------------------------------------------------

 SCF Done:  E(RM062X) =  -399.560799435     A.U. after    1 cycles

 The electronic state is 1-A.
 Alpha  occ. eigenvalues --  -19.70557 -14.77113 -10.65006 -10.60486 -10.59471
 Alpha  occ. eigenvalues --  -10.59446 -10.59217 -10.58560 -10.57883  -1.21818
 Alpha  occ. eigenvalues --   -1.02178  -0.98976  -0.88340  -0.88113  -0.75471
 Alpha  occ. eigenvalues --   -0.73362  -0.65577  -0.64689  -0.58274  -0.54298
 Alpha  occ. eigenvalues --   -0.52428  -0.52260  -0.50575  -0.48084  -0.46718
 Alpha  occ. eigenvalues --   -0.43936  -0.43641  -0.40450  -0.40133  -0.34102
 Alpha  occ. eigenvalues --   -0.30303
 Alpha virt. eigenvalues --   -0.01720  -0.00851  -0.00425   0.01541   0.02621
 Alpha virt. eigenvalues --    0.04044   0.04888   0.04999   0.06963   0.07220
 Alpha virt. eigenvalues --    0.07514   0.07948   0.08251   0.08869   0.09824

 Mulliken charges:
               1
     1  C   -0.459922
     2  C    0.088803
     3  C    0.027555
     4  C    0.188818
     5  C   -0.504725
     6  C    0.711662
     7  C   -0.332189
     8  N   -0.466412
     9  O   -0.665191
    10  H    0.240546
    11  H    0.234405
    12  H    0.205478
    13  H    0.240117
    14  H    0.491055
 Sum of Mulliken charges =   0.00000

 Dipole moment (field-independent basis, Debye):
    X=             -4.8713    Y=             -1.4252    Z=              0.0000  Tot=              5.0755
 Quadrupole moment (field-independent basis, Debye-Ang):
   XX=            -66.6243   YY=            -43.2756   ZZ=            -54.9806
   XY=              5.9513   XZ=             -0.0001   YZ=              0.0000

  Exact polarizability: 130.669   1.130  82.991   0.000   0.000  45.657
 Approx polarizability: 161.554   0.625 109.137   0.000   0.000  57.487

                      1                      2                      3
                      A                      A                      A
 Frequencies --    104.5402               150.0030               263.4153
 Red. masses --      8.5108                 8.0167                 6.7714
 Frc consts  --      0.0548                 0.1063                 0.2768
 IR Inten    --      2.2827                 5.4509                 1.1892

                      4                      5                      6
                      A                      A                      A
 Frequencies --    409.0882               416.8151               419.1722
 Red. masses --      4.6310                 8.9667                 2.7974
 Frc consts  --      0.4566                 0.9178                 0.2896
 IR Inten    --     10.7007                 0.0419                 4.9728

                      7                      8                      9
                      A                      A                      A
 Frequencies --    421.2239               486.3689               559.3517
 Red. masses --      1.1271                 4.6516                 7.4666
 Frc consts  --      0.1178                 0.6483                 1.3764
 IR Inten    --    122.1342                 1.7427                 0.6941

                     10                     11                     12
                      A                      A                      A
 Frequencies --    559.6137               661.1252               713.1944
 Red. masses --      3.1388                 7.1841                 4.1713
 Frc consts  --      0.5792                 1.8501                 1.2501
 IR Inten    --     28.5010                 0.7070                 0.0098

                     13                     14                     15
                      A                      A                      A
 Frequencies --    714.2304               835.3844               863.5551
 Red. masses --      6.2983                 1.3376                 1.5704
 Frc consts  --      1.8930                 0.5500                 0.6900
 IR Inten    --     13.7740                20.1856                49.2831

                     16                     17                     18
                      A                      A                      A
 Frequencies --    868.5968               971.3928               996.9792
 Red. masses --      6.3253                 1.3147                 1.3377
 Frc consts  --      2.8117                 0.7309                 0.7834
 IR Inten    --      6.8869                 0.4392                 0.0002

                     19                     20                     21
                      A                      A                      A
 Frequencies --   1036.7756              1139.3592              1201.3687
 Red. masses --      2.6090                 1.2740                 1.1411
 Frc consts  --      1.6523                 0.9744                 0.9703
 IR Inten    --      0.5343                10.9108                34.0171

                     22                     23                     24
                      A                      A                      A
 Frequencies --   1208.6733              1238.1934              1334.1274
 Red. masses --      1.3506                 3.0542                 2.9037
 Frc consts  --      1.1625                 2.7588                 3.0450
 IR Inten    --    143.7840                 2.8392               112.5368

                     25                     26                     27
                      A                      A                      A
 Frequencies --   1339.3484              1381.5694              1492.8612
 Red. masses --      2.0071                 2.8301                 3.1546
 Frc consts  --      2.1213                 3.1828                 4.1422
 IR Inten    --     17.9481                46.0474                16.5000

                     28                     29                     30
                      A                      A                      A
 Frequencies --   1573.8348              1675.6930              1704.6110
 Red. masses --      2.9783                 6.5585                 6.3499
 Frc consts  --      4.3465                10.8503                10.8710
 IR Inten    --    117.9955                23.2551               124.9185

                     31                     32                     33
                      A                      A                      A
 Frequencies --   2398.4556              3202.0633              3230.5323
 Red. masses --     12.6839                 1.0907                 1.0901
 Frc consts  --     42.9900                 6.5888                 6.7030
 IR Inten    --     60.7686                 8.1698                 0.6659

                     34                     35                     36
                      A                      A                      A
 Frequencies --   3233.0587              3245.5765              3808.7892
 Red. masses --      1.0951                 1.0964                 1.0664
 Frc consts  --      6.7440                 6.8048                 9.1148
 IR Inten    --      0.6904                 0.5076                95.5722

 - Thermochemistry -
 -------------------
 Temperature   298.150 Kelvin.  Pressure   1.00000 Atm.
 Atom     1 has atomic number  6 and mass  12.00000

 Molecular mass:   119.03711 amu.
 Principal axes and moments of inertia in atomic units:
                           1         2         3
     Eigenvalues --   320.888231821.122682142.01091
           X            0.99998   0.00664   0.00000
           Y           -0.00664   0.99998   0.00000
           Z            0.00000   0.00000   1.00000
 This molecule is an asymmetric top.
 Rotational symmetry number  1.
 Rotational temperatures (Kelvin)      0.26992     0.04756     0.04044
 Rotational constants (GHZ):           5.62421     0.99100     0.84255
 Zero-point vibrational energy     274297.4 (Joules/Mol)
                                   65.55865 (Kcal/Mol)
 Warning -- explicit consideration of  10 degrees of freedom as
           vibrations may cause significant error
 Vibrational temperatures:    150.41   215.82   379.00   588.59   599.70
          (Kelvin)            603.09   606.05   699.78   804.78   805.16
                              951.21  1026.13  1027.62  1201.93  1242.46
                             1249.72  1397.62  1434.43  1491.69  1639.28
                             1728.50  1739.01  1781.48  1919.51  1927.02
                             1987.77  2147.89  2264.39  2410.95  2452.55
                             3450.84  4607.05  4648.01  4651.64  4669.65
                             5479.99

 Zero-point correction=                           0.104474 (Hartree/Particle)
 Thermal correction to Energy=                    0.111675
 Thermal correction to Enthalpy=                  0.112619
 Thermal correction to Gibbs Free Energy=         0.072768
 Sum of electronic and zero-point Energies=           -399.456325
 Sum of electronic and thermal Energies=              -399.449124
 Sum of electronic and thermal Enthalpies=            -399.448180
 Sum of electronic and thermal Free Energies=         -399.488032

                     E (Thermal)             CV                S
                      KCal/Mol        Cal/Mol-Kelvin    Cal/Mol-Kelvin
 Total                   70.077             27.556             83.875
 Electronic               0.000              0.000              0.000
 Translational            0.889              2.981             40.238
 Rotational               0.889              2.981             28.617
 Vibrational             68.300             21.595             15.021
 Vibration     1          0.605              1.946              3.368
 Vibration     2          0.618              1.903              2.672
 Vibration     3          0.670              1.740              1.639
 Vibration     4          0.773              1.450              0.930
 Vibration     5          0.780              1.434              0.903
 Vibration     6          0.782              1.429              0.895
 Vibration     7          0.784              1.424              0.888
 Vibration     8          0.842              1.280              0.693
 Vibration     9          0.915              1.119              0.525
 Vibration    10          0.915              1.119              0.525

 Optimization completed.
    -- Stationary point found.
 Normal termination of Gaussian 09 at Fri Mar 21 12:05:52 2025.
