 Gaussian 09, Revision D.01,
 Gaussian 09:  ES64L-G09RevD.01 24-Apr-2013

 ---------------------------------
 #m062X/6-31+G(d) OPT Freq=noraman
 ---------------------------------

 ------------
 formaldehyde
 ------------
 Symbolic Z-matrix:
 Charge =  0 Multiplicity = 1

 SCF Done:  E(RM062X) =  -114.451609408     A.U. after   10 cycles
 SCF Done:  E(RM062X) =  -114.452430615     A.U. after    9 cycles
 SCF Done:  E(RM062X) =  -114.452432084     A.U. after    9 cycles
 SCF Done:  E(RM062X) =  -114.451705335     A.U. after   10 cycles
 SCF Done:  E(RM062X) =  -114.452436373     A.U. after    6 cycles
 SCF Done:  E(RM062X) =  -114.452438551     A.U. after    8 cycles
 Optimization completed.
    -- Stationary point found.

 1\1\GINC-KATANA1\FOpt\RM062X\6-31+G(d)\C1H2O1\Z5358697\20-Mar-2025\0\\
 #m062X/6-31+G(d) OPT Freq=noraman\\formaldehyde\\0,1\C,0.0050783142,0.
 0086885906,-0.0035263907\O,-0.5670784502,-0.9720573482,0.394519553\H,0
 .071122118,0.9290942821,0.6050829385\H,0.490978018,0.0343744754,-0.996
 0761009\\Version=ES64L-G09RevD.01\State=1-A\HF=-114.4524386\RMSD=6.377
 e-09\RMSF=2.020e-05\Dipole=0.4738463,0.8122219,-0.3296501\Quadrupole=0
 .0163023,-0.1340909,0.1177886,-0.1552822,0.0431537,0.1361874\PG=C01 [X
 (C1H2O1)]\\@

 Normal termination of Gaussian 09 at Thu Mar 20 14:16:26 2025.

 ---------------------------------------------------------------------
 #N Geom=AllCheck Guess=TCheck SCRF=Check GenChk RM062X/6-31+G(d) Freq
 ---------------------------------------------------------------------

 Structure from the checkpoint file:  "/srv/scratch/z5358697/gauss/Gau-3854054.chk"
 ------------
 formaldehyde
 ------------
 Charge =  0 Multiplicity = 1

                         Standard orientation:
 ---------------------------------------------------------------------
 Center     Atomic      Atomic             Coordinates (Angstroms)
 Number     Number       Type             X           Y           Z
 ---------------------------------------------------------------------
      1          6           0        0.529054   -0.000001   -0.000003
      2          8           0       -0.674137   -0.000004    0.000001
      3          1           0        1.109356    0.940830    0.000006
      4          1           0        1.109415   -0.940795    0.000006
 ---------------------------------------------------------------------

 SCF Done:  E(RM062X) =  -114.452438551     A.U. after    1 cycles

 The electronic state is 1-A.
 Alpha  occ. eigenvalues --  -19.67306 -10.65446  -1.19383  -0.73102  -0.58317
 Alpha  occ. eigenvalues --   -0.53805  -0.47721  -0.34858
 Alpha virt. eigenvalues --   -0.01167   0.02654   0.04695   0.05340   0.07663
 Alpha virt. eigenvalues --    0.19889   0.21863   0.24506   0.24801   0.29003
 Alpha virt. eigenvalues --    0.29733   0.40469   0.67696   0.75025   0.78986

 Mulliken charges:
               1
     1  C   -0.022711
     2  O   -0.305114
     3  H    0.163911
     4  H    0.163915
 Sum of Mulliken charges =   0.00000

 Dipole moment (field-independent basis, Debye):
    X=              2.5327    Y=              0.0000    Z=              0.0000  Tot=              2.5327
 Quadrupole moment (field-independent basis, Debye-Ang):
   XX=            -12.2764   YY=            -11.6543   ZZ=            -11.7689
   XY=             -0.0001   XZ=              0.0000   YZ=              0.0000

  Exact polarizability:  20.659   0.000  15.078   0.000   0.000   8.572
 Approx polarizability:  24.958   0.000  14.692   0.000   0.000   9.381

                      1                      2                      3
                      A                      A                      A
 Frequencies --   1210.8124              1281.3855              1555.7250
 Red. masses --      1.3645                 1.3417                 1.0956
 Frc consts  --      1.1787                 1.2980                 1.5624
 IR Inten    --      4.8470                12.9762                 5.3796

                      4                      5                      6
                      A                      A                      A
 Frequencies --   1884.3910              2997.7043              3067.5933
 Red. masses --      7.7733                 1.0464                 1.1204
 Frc consts  --     16.2630                 5.5401                 6.2118
 IR Inten    --    122.5684                54.1519               110.8952

 - Thermochemistry -
 -------------------
 Temperature   298.150 Kelvin.  Pressure   1.00000 Atm.
 Atom     1 has atomic number  6 and mass  12.00000

 Molecular mass:    30.01056 amu.
 Principal axes and moments of inertia in atomic units:
                           1         2         3
     Eigenvalues --     6.37117  46.23664  52.60780
           X            1.00000   0.00000   0.00000
           Y            0.00000   1.00000   0.00000
           Z            0.00000   0.00000   1.00000
 This molecule is an asymmetric top.
 Rotational symmetry number  1.
 Rotational temperatures (Kelvin)     13.59465     1.87327     1.64641
 Rotational constants (GHZ):         283.26693    39.03271    34.30558
 Zero-point vibrational energy      71761.7 (Joules/Mol)
                                   17.15145 (Kcal/Mol)
 Vibrational temperatures:   1742.09  1843.63  2238.34  2711.21  4313.02
          (Kelvin)           4413.58

 Zero-point correction=                           0.027333 (Hartree/Particle)
 Thermal correction to Energy=                    0.030198
 Thermal correction to Enthalpy=                  0.031142
 Thermal correction to Gibbs Free Energy=         0.005675
 Sum of electronic and zero-point Energies=           -114.425106
 Sum of electronic and thermal Energies=              -114.422240
 Sum of electronic and thermal Enthalpies=            -114.421296
 Sum of electronic and thermal Free Energies=         -114.446764

                     E (Thermal)             CV                S
                      KCal/Mol        Cal/Mol-Kelvin    Cal/Mol-Kelvin
 Total                   18.950              6.397             53.601
 Electronic               0.000              0.000              0.000
 Translational            0.889              2.981             36.130
 Rotational               0.889              2.981             17.390
 Vibrational             17.172              0.436              0.081

 Optimization completed.
    -- Stationary point found.

 1\1\GINC-KATANA1\Freq\RM062X\6-31+G(d)\C1H2O1\Z5358697\20-Mar-2025\0\\
 #N Geom=AllCheck Guess=TCheck SCRF=Check GenChk RM062X/6-31+G(d) Freq\
 \formaldehyde\\0,1\C,0.0050783142,0.0086885906,-0.0035263907\O,-0.5670
 784502,-0.9720573482,0.394519553\H,0.071122118,0.9290942821,0.60508293
 85\H,0.490978018,0.0343744754,-0.9960761009\\Version=ES64L-G09RevD.01\
 State=1-A\HF=-114.4524386\RMSD=8.125e-10\RMSF=2.020e-05\ZeroPoint=0.02
 73326\Thermal=0.0301981\Dipole=0.4738463,0.8122219,-0.3296502\DipoleDe
 riv=0.4074237,0.2851864,-0.2674362,0.2851849,0.9228633,0.0170674,-0.26

 Normal termination of Gaussian 09 at Thu Mar 20 14:16:33 2025.
