 Gaussian 09, Revision D.01,
 Gaussian 09:  ES64L-G09RevD.01 24-Apr-2013

 ---------------------------------
 #m062X/6-31+G(d) OPT Freq=noraman
 ---------------------------------

 ------------
 chloroethane
 ------------
 Symbolic Z-matrix:
 Charge =  0 Multiplicity = 1

 SCF Done:  E(RM062X) =  -539.344052587     A.U. after   11 cycles
 SCF Done:  E(RM062X) =  -539.344367851     A.U. after   10 cycles
 SCF Done:  E(RM062X) =  -539.344406295     A.U. after    9 cycles
 SCF Done:  E(RM062X) =  -539.344407759     A.U. after    8 cycles
 Optimization completed.
    -- Stationary point found.
 Normal termination of Gaussian 09 at Wed Mar 19 11:58:23 2025.

 ---------------------------------------------------------------------
 #N Geom=AllCheck Guess=TCheck SCRF=Check GenChk RM062X/6-31+G(d) Freq
 ---------------------------------------------------------------------

 Structure from the checkpoint file:  "/srv/scratch/z5358697/gauss/Gau-2999460.chk"
 ------------
 chloroethane
 ------------
 Charge =  0 Multiplicity = 1

                         Standard orientation:
 ---------------------------------------------------------------------
 Center     Atomic      Atomic             Coordinates (Angstroms)
 Number     Number       Type             X           Y           Z
 ---------------------------------------------------------------------
      1          6           0       -1.602963   -0.357625    0.000000
      2          6           0       -0.479218    0.660047    0.000000
      3         17           0        1.127850   -0.151467    0.000000
      4          1           0       -2.567006    0.162548   -0.000008
      5          1           0       -1.551660   -0.994416   -0.886944
      6          1           0       -1.551667   -0.994410    0.886949
      7          1           0       -0.505012    1.293341    0.887717
      8          1           0       -0.505013    1.293342   -0.887715
 ---------------------------------------------------------------------

 SCF Done:  E(RM062X) =  -539.344407759     A.U. after    1 cycles

 The electronic state is 1-A.
 Alpha  occ. eigenvalues -- -102.65240 -10.61176 -10.55600  -9.79970  -7.52366
 Alpha  occ. eigenvalues --   -7.51706  -7.51700  -0.95824  -0.83982  -0.70893
 Alpha  occ. eigenvalues --   -0.55235  -0.52296  -0.47634  -0.44429  -0.43330
 Alpha  occ. eigenvalues --   -0.35868  -0.35772
 Alpha virt. eigenvalues --    0.02635   0.03843   0.04318   0.05697   0.07014
 Alpha virt. eigenvalues --    0.08589   0.09198   0.09723   0.11471   0.12825
 Alpha virt. eigenvalues --    0.13684   0.14467   0.17697   0.22362   0.25307

 Mulliken charges:
               1
     1  C   -0.642503
     2  C   -0.499499
     3  Cl  -0.032327
     4  H    0.214598
     5  H    0.229442
     6  H    0.229442
     7  H    0.250423
     8  H    0.250423
 Sum of Mulliken charges =   0.00000

 Dipole moment (field-independent basis, Debye):
    X=             -2.1238    Y=              0.8671    Z=              0.0000  Tot=              2.2940
 Quadrupole moment (field-independent basis, Debye-Ang):
   XX=            -27.2202   YY=            -26.1247   ZZ=            -26.5364
   XY=             -0.4864   XZ=              0.0000   YZ=              0.0000

  Exact polarizability:  43.558  -2.926  32.762   0.000   0.000  30.284
 Approx polarizability:  44.901  -5.074  35.919   0.000   0.000  33.665

                      1                      2                      3
                      A                      A                      A
 Frequencies --    251.0254               334.1539               695.5356
 Red. masses --      1.0928                 3.1824                 4.5358
 Frc consts  --      0.0406                 0.2094                 1.2928
 IR Inten    --      0.0529                 2.8070                30.7694

                      4                      5                      6
                      A                      A                      A
 Frequencies --    793.4693              1002.5289              1095.9356
 Red. masses --      1.1025                 1.7958                 1.2745
 Frc consts  --      0.4090                 1.0634                 0.9019
 IR Inten    --      2.7192                21.2162                 0.0063

                      7                      8                      9
                      A                      A                      A
 Frequencies --   1107.2744              1290.9684              1349.6734
 Red. masses --      2.1498                 1.1890                 1.2382
 Frc consts  --      1.5530                 1.1675                 1.3289
 IR Inten    --      0.7015                 0.8049                43.3286

                     10                     11                     12
                      A                      A                      A
 Frequencies --   1438.2968              1509.7471              1517.8451
 Red. masses --      1.2562                 1.0361                 1.0816
 Frc consts  --      1.5311                 1.3914                 1.4682
 IR Inten    --      9.4907                 9.3917                 1.7448

                     13                     14                     15
                      A                      A                      A
 Frequencies --   1522.9712              3082.3210              3141.6662
 Red. masses --      1.0628                 1.0373                 1.0633
 Frc consts  --      1.4524                 5.8067                 6.1832
 IR Inten    --      3.3492                14.8937                 8.2569

                     16                     17                     18
                      A                      A                      A
 Frequencies --   3159.7569              3172.3003              3205.1098
 Red. masses --      1.0941                 1.1047                 1.1104
 Frc consts  --      6.4359                 6.5503                 6.7207
 IR Inten    --     22.9242                 5.4712                12.5680

 - Thermochemistry -
 -------------------
 Temperature   298.150 Kelvin.  Pressure   1.00000 Atm.
 Atom     1 has atomic number  6 and mass  12.00000

 Molecular mass:    64.00798 amu.
 Principal axes and moments of inertia in atomic units:
                           1         2         3
     Eigenvalues --    57.46472 329.78271 364.57781
           X            0.99983   0.01847   0.00000
           Y           -0.01847   0.99983   0.00000
           Z            0.00000   0.00000   1.00000
 This molecule is an asymmetric top.
 Rotational symmetry number  1.
 Rotational temperatures (Kelvin)      1.50725     0.26264     0.23757
 Rotational constants (GHZ):          31.40607     5.47252     4.95022
 Zero-point vibrational energy     177469.5 (Joules/Mol)
                                   42.41622 (Kcal/Mol)
 Warning -- explicit consideration of   2 degrees of freedom as
           vibrations may cause significant error
 Vibrational temperatures:    361.17   480.77  1000.72  1141.62  1442.41
          (Kelvin)           1576.80  1593.12  1857.41  1941.88  2069.39
                             2172.19  2183.84  2191.21  4434.77  4520.15
                             4546.18  4564.23  4611.43

 Zero-point correction=                           0.067595 (Hartree/Particle)
 Thermal correction to Energy=                    0.071613
 Thermal correction to Enthalpy=                  0.072557
 Thermal correction to Gibbs Free Energy=         0.041369
 Sum of electronic and zero-point Energies=           -539.276813
 Sum of electronic and thermal Energies=              -539.272795
 Sum of electronic and thermal Enthalpies=            -539.271851
 Sum of electronic and thermal Free Energies=         -539.303039

                     E (Thermal)             CV                S
                      KCal/Mol        Cal/Mol-Kelvin    Cal/Mol-Kelvin
 Total                   44.938             12.344             65.641
 Electronic               0.000              0.000              0.000
 Translational            0.889              2.981             38.388
 Rotational               0.889              2.981             23.451
 Vibrational             43.160              6.383              3.803
 Vibration     1          0.663              1.761              1.723
 Vibration     2          0.716              1.607              1.240

 Optimization completed.
    -- Stationary point found.
 Normal termination of Gaussian 09 at Wed Mar 19 11:58:54 2025.
