 Gaussian 09, Revision D.01,
 Gaussian 09:  ES64L-G09RevD.01 24-Apr-2013

 ---------------------------------
 #m062X/6-31+G(d) OPT Freq=noraman
 ---------------------------------

 -----------------------
 trichloro(nitro)methane
 -----------------------
 Symbolic Z-matrix:
 Charge =  0 Multiplicity = 1

 SCF Done:  E(RM062X) =  -1623.56864473     A.U. after   14 cycles
 SCF Done:  E(RM062X) =  -1623.57374637     A.U. after   13 cycles
 SCF Done:  E(RM062X) =  -1623.56609765     A.U. after   15 cycles
 SCF Done:  E(RM062X) =  -1623.57392702     A.U. after   11 cycles
 SCF Done:  E(RM062X) =  -1623.57183839     A.U. after   13 cycles
 SCF Done:  E(RM062X) =  -1623.57438231     A.U. after   10 cycles
 SCF Done:  E(RM062X) =  -1623.57452155     A.U. after   12 cycles
 SCF Done:  E(RM062X) =  -1623.57451232     A.U. after   12 cycles
 SCF Done:  E(RM062X) =  -1623.57452068     A.U. after   11 cycles
 SCF Done:  E(RM062X) =  -1623.57452401     A.U. after   10 cycles
 SCF Done:  E(RM062X) =  -1623.57452587     A.U. after   10 cycles
 SCF Done:  E(RM062X) =  -1623.57452462     A.U. after   10 cycles
 SCF Done:  E(RM062X) =  -1623.57452248     A.U. after   12 cycles
 SCF Done:  E(RM062X) =  -1623.57292113     A.U. after   13 cycles
 SCF Done:  E(RM062X) =  -1623.57452408     A.U. after    5 cycles
 Optimization completed.
    -- Stationary point found.
 Normal termination of Gaussian 09 at Fri Mar 14 14:16:10 2025.

 ---------------------------------------------------------------------
 #N Geom=AllCheck Guess=TCheck SCRF=Check GenChk RM062X/6-31+G(d) Freq
 ---------------------------------------------------------------------

 Structure from the checkpoint file:  "/srv/scratch/z5358697/gauss/Gau-1835062.chk"
 -----------------------
 trichloro(nitro)methane
 -----------------------
 Charge =  0 Multiplicity = 1

                         Standard orientation:
 ---------------------------------------------------------------------
 Center     Atomic      Atomic             Coordinates (Angstroms)
 Number     Number       Type             X           Y           Z
 ---------------------------------------------------------------------
      1          6           0       -0.231827   -0.025271    0.000296
      2          7           0        1.324138    0.279056   -0.007732
      3          8           0        2.023194   -0.702427   -0.009109
      4          8           0        1.664093    1.433387   -0.008809
      5         17           0       -0.545333   -0.986236   -1.438805
      6         17           0       -0.535933   -0.940079    1.471739
      7         17           0       -1.117339    1.476348   -0.021423
 ---------------------------------------------------------------------

 SCF Done:  E(RM062X) =  -1623.57452408     A.U. after    1 cycles

 The electronic state is 1-A.
 Alpha  occ. eigenvalues -- -102.72622-102.72599-102.72534 -19.73316 -19.72857
 Alpha  occ. eigenvalues --  -15.05938 -10.80375  -9.87333  -9.87313  -9.87260
 Alpha  occ. eigenvalues --   -7.59800  -7.59780  -7.59724  -7.59005  -7.58985
 Alpha  occ. eigenvalues --   -7.58983  -7.58962  -7.58923  -7.58920  -1.42100
 Alpha  occ. eigenvalues --   -1.23991  -1.10190  -0.97922  -0.97787  -0.86906
 Alpha  occ. eigenvalues --   -0.71715  -0.67352  -0.67330  -0.64512  -0.58170
 Alpha  occ. eigenvalues --   -0.57488  -0.48190  -0.45799  -0.45609  -0.44066
 Alpha  occ. eigenvalues --   -0.42385  -0.41467  -0.40626  -0.40358  -0.40029
 Alpha virt. eigenvalues --   -0.06494  -0.02624   0.01228   0.01824   0.02346
 Alpha virt. eigenvalues --    0.03720   0.05441   0.05524   0.08008   0.09018
 Alpha virt. eigenvalues --    0.09148   0.10329   0.10565   0.10844   0.12310

 Mulliken charges:
               1
     1  C   -0.556434
     2  N   -0.062899
     3  O   -0.054164
     4  O    0.020237
     5  Cl   0.221678
     6  Cl   0.223560
     7  Cl   0.208023
 Sum of Mulliken charges =   0.00000

 Dipole moment (field-independent basis, Debye):
    X=             -2.1159    Y=             -0.2471    Z=              0.0050  Tot=              2.1303
 Quadrupole moment (field-independent basis, Debye-Ang):
   XX=            -64.1358   YY=            -60.4056   ZZ=            -56.6215
   XY=             -0.7049   XZ=              0.0284   YZ=              0.0025

  Exact polarizability:  59.091  -2.764  71.505   0.039   0.001  59.807
 Approx polarizability:  67.911  -6.602 101.086   0.060   0.016  73.343

                      1                      2                      3
                      A                      A                      A
 Frequencies --     37.5974               201.5657               207.4565
 Red. masses --     17.2077                25.3753                26.5360
 Frc consts  --      0.0143                 0.6074                 0.6729
 IR Inten    --      0.2465                 1.9787                 0.4562

                      4                      5                      6
                      A                      A                      A
 Frequencies --    288.2982               294.3506               301.9350
 Red. masses --     25.0195                28.9746                20.5250
 Frc consts  --      1.2252                 1.4791                 1.1025
 IR Inten    --      0.6263                 1.8144                 0.1412

                      7                      8                      9
                      A                      A                      A
 Frequencies --    453.1700               454.4528               708.6342
 Red. masses --     28.2222                18.5010                14.8988
 Frc consts  --      3.4148                 2.2512                 4.4080
 IR Inten    --      0.1417                 1.4211                53.8299

                     10                     11                     12
                      A                      A                      A
 Frequencies --    755.2021               887.7579               893.2352
 Red. masses --     13.5455                14.4135                13.0817
 Frc consts  --      4.5517                 6.6928                 6.1496
 IR Inten    --     52.6558                23.1227               130.1175

                     13                     14                     15
                      A                      A                      A
 Frequencies --    921.4037              1459.3988              1788.5452
 Red. masses --     12.8411                15.1297                14.6030
 Frc consts  --      6.4232                18.9858                27.5228
 IR Inten    --    166.5720               128.8290               310.2774

 - Thermochemistry -
 -------------------
 Temperature   298.150 Kelvin.  Pressure   1.00000 Atm.
 Atom     1 has atomic number  6 and mass  12.00000

 Molecular mass:   162.89946 amu.
 Principal axes and moments of inertia in atomic units:
                           1         2         3
     Eigenvalues --  1182.444161239.909561364.22172
           X            0.99931   0.03722  -0.00038
           Y           -0.03722   0.99931  -0.00011
           Z            0.00038   0.00013   1.00000
 This molecule is an asymmetric top.
 Rotational symmetry number  1.
 Warning -- assumption of classical behavior for rotation
           may cause significant error
 Rotational temperatures (Kelvin)      0.07325     0.06985     0.06349
 Rotational constants (GHZ):           1.52628     1.45554     1.32291
 Zero-point vibrational energy      57737.8 (Joules/Mol)
                                   13.79966 (Kcal/Mol)
 Warning -- explicit consideration of   8 degrees of freedom as
           vibrations may cause significant error
 Vibrational temperatures:     54.09   290.01   298.48   414.80   423.50
          (Kelvin)            434.42   652.01   653.86  1019.57  1086.57
                             1277.28  1285.16  1325.69  2099.75  2573.31

 Zero-point correction=                           0.021991 (Hartree/Particle)
 Thermal correction to Energy=                    0.028964
 Thermal correction to Enthalpy=                  0.029908
 Thermal correction to Gibbs Free Energy=        -0.011289
 Sum of electronic and zero-point Energies=          -1623.552533
 Sum of electronic and thermal Energies=             -1623.545560
 Sum of electronic and thermal Enthalpies=           -1623.544616
 Sum of electronic and thermal Free Energies=        -1623.585814

                     E (Thermal)             CV                S
                      KCal/Mol        Cal/Mol-Kelvin    Cal/Mol-Kelvin
 Total                   18.175             22.516             86.708
 Electronic               0.000              0.000              0.000
 Translational            0.889              2.981             41.173
 Rotational               0.889              2.981             29.082
 Vibrational             16.398             16.554             16.453
 Vibration     1          0.594              1.982              5.382
 Vibration     2          0.638              1.838              2.119
 Vibration     3          0.641              1.829              2.066
 Vibration     4          0.685              1.695              1.484
 Vibration     5          0.689              1.684              1.449
 Vibration     6          0.694              1.670              1.406
 Vibration     7          0.812              1.354              0.786
 Vibration     8          0.813              1.351              0.782

 Normal termination of Gaussian 09 at Fri Mar 14 14:17:50 2025.
