 Gaussian 09, Revision D.01,
 Gaussian 09:  ES64L-G09RevD.01 24-Apr-2013

 ---------------------------------
 #m062X/6-31+G(d) OPT Freq=noraman
 ---------------------------------

 ---------------------------
 1,1,1,2,2-pentachloroethane
 ---------------------------
 Symbolic Z-matrix:
 Charge =  0 Multiplicity = 1

 SCF Done:  E(RM062X) =  -2377.58297728     A.U. after   13 cycles
 SCF Done:  E(RM062X) =  -2377.58518156     A.U. after   12 cycles
 SCF Done:  E(RM062X) =  -2377.58560173     A.U. after   12 cycles
 SCF Done:  E(RM062X) =  -2377.58504673     A.U. after   12 cycles
 SCF Done:  E(RM062X) =  -2377.58572016     A.U. after    9 cycles
 SCF Done:  E(RM062X) =  -2377.58574786     A.U. after   11 cycles
 SCF Done:  E(RM062X) =  -2377.58575327     A.U. after   10 cycles
 Optimization completed.
    -- Stationary point found.
 Normal termination of Gaussian 09 at Fri Mar 14 15:41:55 2025.

 ---------------------------------------------------------------------
 #N Geom=AllCheck Guess=TCheck SCRF=Check GenChk RM062X/6-31+G(d) Freq
 ---------------------------------------------------------------------

 Structure from the checkpoint file:  "/srv/scratch/z5358697/gauss/Gau-807621.chk"
 ---------------------------
 1,1,1,2,2-pentachloroethane
 ---------------------------
 Charge =  0 Multiplicity = 1

                         Standard orientation:
 ---------------------------------------------------------------------
 Center     Atomic      Atomic             Coordinates (Angstroms)
 Number     Number       Type             X           Y           Z
 ---------------------------------------------------------------------
      1          6           0       -0.813174   -0.000366   -0.598660
      2          6           0        0.620048   -0.000146    0.002241
      3         17           0        1.474149    1.444830   -0.592631
      4         17           0        1.475319   -1.444530   -0.592465
      5         17           0        0.583448    0.000405    1.770441
      6         17           0       -1.711486   -1.455763   -0.137724
      7         17           0       -1.711439    1.455266   -0.138061
      8          1           0       -0.711095   -0.000477   -1.683988
 ---------------------------------------------------------------------

 SCF Done:  E(RM062X) =  -2377.58575327     A.U. after    1 cycles

 The electronic state is 1-A.
 Alpha  occ. eigenvalues -- -102.70768-102.70765-102.70588-102.69899-102.69897
 Alpha  occ. eigenvalues --  -10.76758 -10.71639  -9.85481  -9.85477  -9.85286
 Alpha  occ. eigenvalues --   -9.84598  -9.84596  -7.57929  -7.57925  -7.57740
 Alpha  occ. eigenvalues --   -7.57164  -7.57160  -7.57146  -7.57143  -7.57042
 Alpha  occ. eigenvalues --   -7.57040  -7.56961  -7.56957  -7.56291  -7.56289
 Alpha  occ. eigenvalues --   -7.56277  -7.56276  -1.09475  -1.01997  -0.96390
 Alpha  occ. eigenvalues --   -0.95774  -0.94028  -0.81734  -0.69839  -0.60825
 Alpha  occ. eigenvalues --   -0.58278  -0.58120  -0.53553  -0.51748  -0.44205
 Alpha  occ. eigenvalues --   -0.43720  -0.42623  -0.41872  -0.41163  -0.40412
 Alpha  occ. eigenvalues --   -0.40383  -0.39063  -0.38787  -0.37657
 Alpha virt. eigenvalues --   -0.01387  -0.00160   0.00021   0.01337   0.03051
 Alpha virt. eigenvalues --    0.04109   0.04374   0.04877   0.05406   0.07973
 Alpha virt. eigenvalues --    0.08340   0.08580   0.09684   0.10342   0.10456

 Mulliken charges:
               1
     1  C   -0.548121
     2  C   -0.654035
     3  Cl   0.175544
     4  Cl   0.175840
     5  Cl   0.222755
     6  Cl   0.143843
     7  Cl   0.143623
     8  H    0.340551
 Sum of Mulliken charges =   0.00000

 Dipole moment (field-independent basis, Debye):
    X=              0.0950    Y=             -0.0008    Z=             -1.0170  Tot=              1.0214
 Quadrupole moment (field-independent basis, Debye-Ang):
   XX=            -76.9012   YY=            -75.0346   ZZ=            -72.6832
   XY=             -0.0009   XZ=              0.3249   YZ=              0.0018

  Exact polarizability:  80.371  -0.005  91.938  -4.470   0.000  73.723
 Approx polarizability:  90.557  -0.008 114.883  -8.126   0.002  93.489

                      1                      2                      3
                      A                      A                      A
 Frequencies --     76.0269               171.6472               173.1965
 Red. masses --     28.2276                29.7076                33.1239
 Frc consts  --      0.0961                 0.5157                 0.5854
 IR Inten    --      0.0372                 0.3968                 0.3267

                      4                      5                      6
                      A                      A                      A
 Frequencies --    234.4685               242.7774               286.0838
 Red. masses --     34.4474                27.6047                27.2410
 Frc consts  --      1.1158                 0.9586                 1.3136
 IR Inten    --      0.0028                 0.0848                 0.3650

                      7                      8                      9
                      A                      A                      A
 Frequencies --    336.6010               336.9607               419.9524
 Red. masses --     29.1986                18.9359                27.2370
 Frc consts  --      1.9491                 1.2668                 2.8301
 IR Inten    --      0.0512                 1.6127                 0.7691

                     10                     11                     12
                      A                      A                      A
 Frequencies --    600.3420               755.5003               811.1592
 Red. masses --      8.5607                 9.5969                11.0089
 Frc consts  --      1.8178                 3.2274                 4.2678
 IR Inten    --     23.1295                63.0017               202.8976

                     13                     14                     15
                      A                      A                      A
 Frequencies --    859.9119               874.0376              1053.1422
 Red. masses --      6.8207                 8.7759                 8.7069
 Frc consts  --      2.9716                 3.9501                 5.6897
 IR Inten    --     97.3152                 3.3654                 9.7262

                     16                     17                     18
                      A                      A                      A
 Frequencies --   1269.1698              1303.7087              3196.5596
 Red. masses --      1.0961                 1.1924                 1.0872
 Frc consts  --      1.0403                 1.1941                 6.5453
 IR Inten    --     13.3321                 3.8649                 4.6919

 - Thermochemistry -
 -------------------
 Temperature   298.150 Kelvin.  Pressure   1.00000 Atm.
 Atom     1 has atomic number  6 and mass  12.00000

 Molecular mass:   199.85209 amu.
 Principal axes and moments of inertia in atomic units:
                           1         2         3
     Eigenvalues --  1559.686661873.203922414.24327
           X            0.99998   0.00000   0.00598
           Y            0.00000   1.00000   0.00001
           Z           -0.00598  -0.00001   0.99998
 This molecule is an asymmetric top.
 Rotational symmetry number  1.
 Warning -- assumption of classical behavior for rotation
           may cause significant error
 Rotational temperatures (Kelvin)      0.05553     0.04624     0.03588
 Rotational constants (GHZ):           1.15712     0.96345     0.74754
 Zero-point vibrational energy      77764.7 (Joules/Mol)
                                   18.58621 (Kcal/Mol)
 Warning -- explicit consideration of  10 degrees of freedom as
           vibrations may cause significant error
 Vibrational temperatures:    109.39   246.96   249.19   337.35   349.30
          (Kelvin)            411.61   484.29   484.81   604.22   863.76
                             1087.00  1167.08  1237.22  1257.54  1515.23
                             1826.05  1875.74  4599.13

 Zero-point correction=                           0.029619 (Hartree/Particle)
 Thermal correction to Energy=                    0.037433
 Thermal correction to Enthalpy=                  0.038377
 Thermal correction to Gibbs Free Energy=        -0.004738
 Sum of electronic and zero-point Energies=          -2377.556134
 Sum of electronic and thermal Energies=             -2377.548320
 Sum of electronic and thermal Enthalpies=           -2377.547376
 Sum of electronic and thermal Free Energies=        -2377.590491

                     E (Thermal)             CV                S
                      KCal/Mol        Cal/Mol-Kelvin    Cal/Mol-Kelvin
 Total                   23.489             25.690             90.742
 Electronic               0.000              0.000              0.000
 Translational            0.889              2.981             41.782
 Rotational               0.889              2.981             30.335
 Vibrational             21.712             19.728             18.626
 Vibration     1          0.599              1.965              3.991
 Vibration     2          0.626              1.877              2.417
 Vibration     3          0.627              1.875              2.401
 Vibration     4          0.654              1.788              1.844
 Vibration     5          0.659              1.775              1.782
 Vibration     6          0.684              1.700              1.497
 Vibration     7          0.717              1.602              1.228
 Vibration     8          0.718              1.602              1.227
 Vibration     9          0.783              1.427              0.892
 Vibration    10          0.958              1.031              0.449

 Optimization completed.
    -- Stationary point found.
 Normal termination of Gaussian 09 at Fri Mar 14 15:44:09 2025.
