 Gaussian 09, Revision D.01,
 Gaussian 09:  ES64L-G09RevD.01 24-Apr-2013

 ---------------------------------
 #m062X/6-31+G(d) OPT Freq=noraman
 ---------------------------------

 ---------------------
 3-hydroxybenzonitrile
 ---------------------
 Symbolic Z-matrix:
 Charge =  0 Multiplicity = 1

 SCF Done:  E(RM062X) =  -399.557689782     A.U. after   14 cycles
 SCF Done:  E(RM062X) =  -399.558796227     A.U. after   12 cycles
 SCF Done:  E(RM062X) =  -399.558852074     A.U. after   12 cycles
 SCF Done:  E(RM062X) =  -399.558854877     A.U. after   11 cycles
 SCF Done:  E(RM062X) =  -399.558856050     A.U. after   10 cycles
 Optimization completed.
    -- Stationary point found.
 Normal termination of Gaussian 09 at Fri Mar 21 12:10:13 2025.

 ---------------------------------------------------------------------
 #N Geom=AllCheck Guess=TCheck SCRF=Check GenChk RM062X/6-31+G(d) Freq
 ---------------------------------------------------------------------

 Structure from the checkpoint file:  "/srv/scratch/z5358697/gauss/Gau-2619546.chk"
 ---------------------
 3-hydroxybenzonitrile
 ---------------------
 Charge =  0 Multiplicity = 1

                         Standard orientation:
 ---------------------------------------------------------------------
 Center     Atomic      Atomic             Coordinates (Angstroms)
 Number     Number       Type             X           Y           Z
 ---------------------------------------------------------------------
      1          6           0       -0.697659    1.800510   -0.000003
      2          6           0        0.636851    1.412382    0.000005
      3          6           0        0.939771    0.045055    0.000002
      4          6           0       -0.066893   -0.920941   -0.000001
      5          6           0       -1.398764   -0.510604    0.000010
      6          6           0       -1.715407    0.848982    0.000004
      7          8           0       -2.344007   -1.487564    0.000020
      8          6           0        2.318549   -0.377271   -0.000003
      9          7           0        3.426974   -0.710494   -0.000005
     10          1           0       -0.953334    2.855531   -0.000011
     11          1           0        1.436513    2.144748    0.000001
     12          1           0        0.168260   -1.979815   -0.000014
     13          1           0       -2.756845    1.163022    0.000002
     14          1           0       -3.230043   -1.098190   -0.000187
 ---------------------------------------------------------------------

 SCF Done:  E(RM062X) =  -399.558856050     A.U. after    1 cycles

 The electronic state is 1-A.
 Alpha  occ. eigenvalues --  -19.70161 -14.77578 -10.64644 -10.61408 -10.59771
 Alpha  occ. eigenvalues --  -10.58752 -10.58620 -10.58482 -10.58337  -1.21397
 Alpha  occ. eigenvalues --   -1.02520  -0.98999  -0.89083  -0.87178  -0.76038
 Alpha  occ. eigenvalues --   -0.72319  -0.68011  -0.60499  -0.58387  -0.56630
 Alpha  occ. eigenvalues --   -0.52908  -0.52097  -0.49702  -0.46797  -0.46458
 Alpha  occ. eigenvalues --   -0.44816  -0.43402  -0.41094  -0.40578  -0.33235
 Alpha  occ. eigenvalues --   -0.30717
 Alpha virt. eigenvalues --   -0.02957  -0.00313   0.00503   0.01554   0.02603
 Alpha virt. eigenvalues --    0.04140   0.04815   0.04933   0.06512   0.07111
 Alpha virt. eigenvalues --    0.07621   0.08069   0.08427   0.08857   0.10111

 Mulliken charges:
               1
     1  C   -0.362174
     2  C   -0.316237
     3  C    0.589017
     4  C   -0.102330
     5  C    0.101255
     6  C    0.165759
     7  O   -0.669698
     8  C   -0.348932
     9  N   -0.457635
    10  H    0.221718
    11  H    0.235769
    12  H    0.249904
    13  H    0.201809
    14  H    0.491775
 Sum of Mulliken charges =   0.00000

 Dipole moment (field-independent basis, Debye):
    X=             -5.3712    Y=              2.3991    Z=             -0.0004  Tot=              5.8827
 Quadrupole moment (field-independent basis, Debye-Ang):
   XX=            -56.6992   YY=            -49.4276   ZZ=            -55.0025
   XY=              1.9268   XZ=              0.0014   YZ=              0.0004

  Exact polarizability: 121.716  -5.284  89.611   0.000   0.000  45.764
 Approx polarizability: 150.701  -6.668 117.664   0.000   0.000  57.655

                      1                      2                      3
                      A                      A                      A
 Frequencies --    149.0533               155.5202               232.2868
 Red. masses --      5.9946                 8.3584                 4.3500
 Frc consts  --      0.0785                 0.1191                 0.1383
 IR Inten    --      0.3093                 2.7303                 0.3335

                      4                      5                      6
                      A                      A                      A
 Frequencies --    387.4267               403.9390               405.3332
 Red. masses --      1.1235                 4.8915                 4.3644
 Frc consts  --      0.0994                 0.4702                 0.4225
 IR Inten    --    122.5674                12.1312                 7.9915

                      7                      8                      9
                      A                      A                      A
 Frequencies --    460.2935               492.1039               540.1439
 Red. masses --      8.3086                 3.8574                 7.3104
 Frc consts  --      1.0372                 0.5504                 1.2566
 IR Inten    --      0.2554                 7.3664                 2.1313

                     10                     11                     12
                      A                      A                      A
 Frequencies --    586.2536               636.9442               687.4372
 Red. masses --      6.7029                 5.6086                 2.3201
 Frc consts  --      1.3573                 1.3406                 0.6460
 IR Inten    --      0.3013                 0.0063                21.1598

                     13                     14                     15
                      A                      A                      A
 Frequencies --    732.5241               805.3526               910.0448
 Red. masses --      7.3379                 1.4677                 1.4329
 Frc consts  --      2.3199                 0.5609                 0.6992
 IR Inten    --      0.7652                53.8184                 2.9034

                     16                     17                     18
                      A                      A                      A
 Frequencies --    919.7507               969.5892              1004.6962
 Red. masses --      1.4072                 3.5774                 1.3032
 Frc consts  --      0.7014                 1.9815                 0.7751
 IR Inten    --     16.3601                41.6462                 0.0000

                     19                     20                     21
                      A                      A                      A
 Frequencies --   1018.0540              1128.2706              1180.1556
 Red. masses --      6.1307                 1.5805                 1.5874
 Frc consts  --      3.7437                 1.1854                 1.3026
 IR Inten    --      3.4404                 6.8845                25.7315

                     22                     23                     24
                      A                      A                      A
 Frequencies --   1194.0180              1219.3142              1325.2571
 Red. masses --      1.1831                 1.3578                 1.8742
 Frc consts  --      0.9938                 1.1894                 1.9394
 IR Inten    --     26.8771                90.7673                 4.2288

                     25                     26                     27
                      A                      A                      A
 Frequencies --   1351.8523              1366.8420              1527.2296
 Red. masses --      2.2464                 5.3459                 3.1300
 Frc consts  --      2.4188                 5.8845                 4.3013
 IR Inten    --    134.1925                19.9452                16.3413

                     28                     29                     30
                      A                      A                      A
 Frequencies --   1546.7692              1676.8986              1704.7969
 Red. masses --      2.8144                 6.5935                 6.3421
 Frc consts  --      3.9672                10.9240                10.8599
 IR Inten    --     62.5537                86.4157                42.0111

                     31                     32                     33
                      A                      A                      A
 Frequencies --   2417.9252              3211.0907              3233.2556
 Red. masses --     12.6864                 1.0903                 1.0906
 Frc consts  --     43.6994                 6.6235                 6.7171
 IR Inten    --     28.4293                 8.0809                 1.3979

                     34                     35                     36
                      A                      A                      A
 Frequencies --   3248.3001              3255.2875              3811.7054
 Red. masses --      1.0972                 1.0934                 1.0665
 Frc consts  --      6.8211                 6.8268                 9.1294
 IR Inten    --      3.7715                 0.9946                86.1594

 - Thermochemistry -
 -------------------
 Temperature   298.150 Kelvin.  Pressure   1.00000 Atm.
 Atom     1 has atomic number  6 and mass  12.00000

 Molecular mass:   119.03711 amu.
 Principal axes and moments of inertia in atomic units:
                           1         2         3
     Eigenvalues --   529.570751492.544972022.11572
           X            1.00000   0.00094   0.00000
           Y           -0.00094   1.00000   0.00000
           Z            0.00000   0.00000   1.00000
 This molecule is an asymmetric top.
 Rotational symmetry number  1.
 Warning -- assumption of classical behavior for rotation
           may cause significant error
 Rotational temperatures (Kelvin)      0.16355     0.05803     0.04283
 Rotational constants (GHZ):           3.40793     1.20917     0.89250
 Zero-point vibrational energy     274517.3 (Joules/Mol)
                                   65.61122 (Kcal/Mol)
 Warning -- explicit consideration of  10 degrees of freedom as
           vibrations may cause significant error
 Vibrational temperatures:    214.45   223.76   334.21   557.42   581.18
          (Kelvin)            583.18   662.26   708.03   777.15   843.49
                              916.42   989.07  1053.94  1158.72  1309.35
                             1323.31  1395.02  1445.53  1464.75  1623.33
                             1697.98  1717.92  1754.32  1906.75  1945.01
                             1966.58  2197.34  2225.45  2412.68  2452.82
                             3478.85  4620.04  4651.93  4673.57  4683.63
                             5484.19

 Zero-point correction=                           0.104558 (Hartree/Particle)
 Thermal correction to Energy=                    0.111725
 Thermal correction to Enthalpy=                  0.112669
 Thermal correction to Gibbs Free Energy=         0.072929
 Sum of electronic and zero-point Energies=           -399.454298
 Sum of electronic and thermal Energies=              -399.447131
 Sum of electronic and thermal Enthalpies=            -399.446187
 Sum of electronic and thermal Free Energies=         -399.485927

                     E (Thermal)             CV                S
                      KCal/Mol        Cal/Mol-Kelvin    Cal/Mol-Kelvin
 Total                   70.109             27.584             83.641
 Electronic               0.000              0.000              0.000
 Translational            0.889              2.981             40.238
 Rotational               0.889              2.981             28.860
 Vibrational             68.331             21.623             14.544
 Vibration     1          0.618              1.904              2.684
 Vibration     2          0.620              1.897              2.604
 Vibration     3          0.653              1.792              1.861
 Vibration     4          0.756              1.497              1.010
 Vibration     5          0.769              1.462              0.948
 Vibration     6          0.770              1.459              0.943
 Vibration     7          0.818              1.338              0.765
 Vibration     8          0.848              1.268              0.678
 Vibration     9          0.895              1.161              0.565
 Vibration    10          0.943              1.061              0.474

 Optimization completed.
    -- Stationary point found.
 Normal termination of Gaussian 09 at Fri Mar 21 12:16:25 2025.
