 Gaussian 09, Revision D.01,
 Gaussian 09:  ES64L-G09RevD.01 24-Apr-2013

 ---------------------------------
 #m062X/6-31+G(d) OPT Freq=noraman
 ---------------------------------

 -----------
 cyclohexane
 -----------
 Symbolic Z-matrix:
 Charge =  0 Multiplicity = 1

 SCF Done:  E(RM062X) =  -235.756273340     A.U. after   10 cycles
 SCF Done:  E(RM062X) =  -235.756582678     A.U. after    8 cycles
 SCF Done:  E(RM062X) =  -235.756682404     A.U. after    9 cycles
 Optimization completed.
    -- Stationary point found.
 Normal termination of Gaussian 09 at Wed Mar 19 12:00:45 2025.

 ---------------------------------------------------------------------
 #N Geom=AllCheck Guess=TCheck SCRF=Check GenChk RM062X/6-31+G(d) Freq
 ---------------------------------------------------------------------

 Structure from the checkpoint file:  "/srv/scratch/z5358697/gauss/Gau-1287422.chk"
 -----------
 cyclohexane
 -----------
 Charge =  0 Multiplicity = 1

                         Standard orientation:
 ---------------------------------------------------------------------
 Center     Atomic      Atomic             Coordinates (Angstroms)
 Number     Number       Type             X           Y           Z
 ---------------------------------------------------------------------
      1          6           0       -0.181981    1.447153    0.233124
      2          6           0       -1.344707    0.566028   -0.233231
      3          6           0       -1.162544   -0.881087    0.233405
      4          6           0        0.181981   -1.447157   -0.233120
      5          6           0        1.344713   -0.566041    0.233216
      6          6           0        1.162543    0.881100   -0.233394
      7          1           0       -0.188414    1.499612    1.332230
      8          1           0       -0.310166    2.473058   -0.132320
      9          1           0       -2.297327    0.967090    0.132698
     10          1           0       -1.393798    0.586233   -1.332314
     11          1           0       -1.204729   -0.912709    1.332468
     12          1           0       -1.986216   -1.505363   -0.132894
     13          1           0        0.310142   -2.473049    0.132344
     14          1           0        0.188395   -1.499639   -1.332231
     15          1           0        1.393848   -0.586240    1.332307
     16          1           0        2.297309   -0.967096   -0.132723
     17          1           0        1.986182    1.505404    0.132898
     18          1           0        1.204745    0.912727   -1.332464
 ---------------------------------------------------------------------

 SCF Done:  E(RM062X) =  -235.756682404     A.U. after    1 cycles

 The electronic state is 1-A.
 Alpha  occ. eigenvalues --  -10.53718 -10.53703 -10.53701 -10.53668 -10.53666
 Alpha  occ. eigenvalues --  -10.53647  -0.92959  -0.83267  -0.83256  -0.68755
 Alpha  occ. eigenvalues --   -0.68746  -0.62802  -0.54912  -0.50830  -0.50171
 Alpha  occ. eigenvalues --   -0.50159  -0.43876  -0.43866  -0.42996  -0.39874
 Alpha  occ. eigenvalues --   -0.39872  -0.37254  -0.35107  -0.35106
 Alpha virt. eigenvalues --    0.02541   0.03417   0.03420   0.04094   0.05228
 Alpha virt. eigenvalues --    0.05229   0.08095   0.08098   0.08498   0.10603
 Alpha virt. eigenvalues --    0.11022   0.11025   0.11170   0.11822   0.12051

 Mulliken charges:
               1
     1  C   -0.415410
     2  C   -0.415673
     3  C   -0.415703
     4  C   -0.415417
     5  C   -0.415684
     6  C   -0.415707
     7  H    0.209397
     8  H    0.206140
     9  H    0.206225
    10  H    0.209404
    11  H    0.209451
    12  H    0.206177
    13  H    0.206142
    14  H    0.209397
    15  H    0.209402
    16  H    0.206230
    17  H    0.206180
    18  H    0.209449
 Sum of Mulliken charges =   0.00000

 Dipole moment (field-independent basis, Debye):
    X=              0.0000    Y=              0.0000    Z=              0.0000  Tot=              0.0000
 Quadrupole moment (field-independent basis, Debye-Ang):
   XX=            -40.8342   YY=            -40.8403   ZZ=            -40.3739
   XY=              0.0016   XZ=              0.0020   YZ=              0.0035

  Exact polarizability:  69.062  -0.083  68.976  -0.070   0.016  61.656
 Approx polarizability:  73.900   0.004  73.893   0.003   0.007  76.393

                      1                      2                      3
                      A                      A                      A
 Frequencies --    237.0830               239.6123               390.5569
 Red. masses --      1.7575                 1.7603                 1.5353
 Frc consts  --      0.0582                 0.0595                 0.1380
 IR Inten    --      0.0071                 0.0053                 0.0000

                      4                      5                      6
                      A                      A                      A
 Frequencies --    429.2844               432.4489               525.9421
 Red. masses --      2.9475                 2.9600                 1.3087
 Frc consts  --      0.3200                 0.3261                 0.2133
 IR Inten    --      0.0000                 0.0000                 0.1698

                      7                      8                      9
                      A                      A                      A
 Frequencies --    798.2829               801.9107               825.8051
 Red. masses --      1.4374                 1.4332                 3.4408
 Frc consts  --      0.5397                 0.5430                 1.3825
 IR Inten    --      0.0000                 0.0000                 0.0000

                     10                     11                     12
                      A                      A                      A
 Frequencies --    886.6684               890.1683               921.5316
 Red. masses --      2.1418                 2.1124                 1.3749
 Frc consts  --      0.9921                 0.9862                 0.6879
 IR Inten    --      2.4665                 2.6325                 1.6547

                     13                     14                     15
                      A                      A                      A
 Frequencies --    923.9396              1046.6994              1056.2165
 Red. masses --      1.3368                 2.6362                 1.6432
 Frc consts  --      0.6723                 1.7016                 1.0801
 IR Inten    --      1.5152                 2.1488                 0.0000

                     16                     17                     18
                      A                      A                      A
 Frequencies --   1058.8968              1078.2949              1125.4363
 Red. masses --      1.6463                 1.0122                 1.3826
 Frc consts  --      1.0876                 0.6934                 1.0318
 IR Inten    --      0.0000                 0.0000                 0.0016

                     19                     20                     21
                      A                      A                      A
 Frequencies --   1146.1625              1189.2321              1291.3186
 Red. masses --      1.4977                 2.2707                 1.2983
 Frc consts  --      1.1592                 1.8921                 1.2755
 IR Inten    --      0.0023                 0.0000                 2.1201

                     22                     23                     24
                      A                      A                      A
 Frequencies --   1292.7454              1303.7090              1307.3384
 Red. masses --      1.2944                 1.2027                 1.1944
 Frc consts  --      1.2745                 1.2044                 1.2028
 IR Inten    --      1.8066                 0.0000                 0.0000

                     25                     26                     27
                      A                      A                      A
 Frequencies --   1353.9830              1392.6785              1394.8782
 Red. masses --      1.3031                 1.4745                 1.4489
 Frc consts  --      1.4075                 1.6849                 1.6609
 IR Inten    --      0.0000                 0.0046                 0.1566

                     28                     29                     30
                      A                      A                      A
 Frequencies --   1398.1136              1399.3605              1400.1964
 Red. masses --      1.6937                 1.4520                 1.7004
 Frc consts  --      1.9506                 1.6753                 1.9641
 IR Inten    --      0.0000                 0.1257                 0.0000

                     31                     32                     33
                      A                      A                      A
 Frequencies --   1499.7522              1502.0580              1507.6958
 Red. masses --      1.0856                 1.0854                 1.1062
 Frc consts  --      1.4386                 1.4428                 1.4815
 IR Inten    --      0.0000                 0.0000                 6.7419

                     34                     35                     36
                      A                      A                      A
 Frequencies --   1509.8909              1513.8906              1530.4453
 Red. masses --      1.1064                 1.0799                 1.1054
 Frc consts  --      1.4862                 1.4583                 1.5254
 IR Inten    --      6.5184                16.1657                 0.0000

                     37                     38                     39
                      A                      A                      A
 Frequencies --   3041.1812              3042.2398              3042.7051
 Red. masses --      1.0694                 1.0724                 1.0691
 Frc consts  --      5.8276                 5.8476                 5.8314
 IR Inten    --     31.4029                 0.0467                31.9982

                     40                     41                     42
                      A                      A                      A
 Frequencies --   3048.4120              3050.1985              3053.2063
 Red. masses --      1.0627                 1.0636                 1.0606
 Frc consts  --      5.8186                 5.8303                 5.8252
 IR Inten    --      0.0006                 0.0007                98.5225

                     43                     44                     45
                      A                      A                      A
 Frequencies --   3099.1515              3101.3987              3101.9885
 Red. masses --      1.0945                 1.0984                 1.0997
 Frc consts  --      6.1938                 6.2249                 6.2344
 IR Inten    --    106.4688                 0.0166                 0.0144

                     46                     47                     48
                      A                      A                      A
 Frequencies --   3103.7281              3111.6980              3112.4710
 Red. masses --      1.0976                 1.0958                 1.0999
 Frc consts  --      6.2296                 6.2516                 6.2780
 IR Inten    --    118.2341                 0.7558               110.5564

 - Thermochemistry -
 -------------------
 Temperature   298.150 Kelvin.  Pressure   1.00000 Atm.
 Atom     1 has atomic number  6 and mass  12.00000

 Molecular mass:    84.09390 amu.
 Principal axes and moments of inertia in atomic units:
                           1         2         3
     Eigenvalues --   417.90909 418.11116 730.61967
           X            0.99914   0.04149   0.00002
           Y           -0.04149   0.99914   0.00004
           Z           -0.00002  -0.00004   1.00000
 This molecule is an asymmetric top.
 Rotational symmetry number  1.
 Rotational temperatures (Kelvin)      0.20726     0.20715     0.11855
 Rotational constants (GHZ):           4.31850     4.31641     2.47015
 Zero-point vibrational energy     451653.7 (Joules/Mol)
                                  107.94783 (Kcal/Mol)
 Warning -- explicit consideration of   6 degrees of freedom as
           vibrations may cause significant error
 Vibrational temperatures:    341.11   344.75   561.92   617.64   622.20
          (Kelvin)            756.71  1148.55  1153.77  1188.15  1275.72
                             1280.75  1325.88  1329.34  1505.97  1519.66
                             1523.51  1551.42  1619.25  1649.07  1711.04
                             1857.92  1859.97  1875.74  1880.97  1948.08
                             2003.75  2006.92  2011.57  2013.37  2014.57
                             2157.81  2161.12  2169.24  2172.39  2178.15
                             2201.97  4375.58  4377.10  4377.77  4385.98
                             4388.55  4392.88  4458.98  4462.22  4463.06
                             4465.57  4477.03  4478.15

 Zero-point correction=                           0.172026 (Hartree/Particle)
 Thermal correction to Energy=                    0.177687
 Thermal correction to Enthalpy=                  0.178631
 Thermal correction to Gibbs Free Energy=         0.143295
 Sum of electronic and zero-point Energies=           -235.584657
 Sum of electronic and thermal Energies=              -235.578995
 Sum of electronic and thermal Enthalpies=            -235.578051
 Sum of electronic and thermal Free Energies=         -235.613387

                     E (Thermal)             CV                S
                      KCal/Mol        Cal/Mol-Kelvin    Cal/Mol-Kelvin
 Total                  111.500             22.563             74.371
 Electronic               0.000              0.000              0.000
 Translational            0.889              2.981             39.202
 Rotational               0.889              2.981             26.348
 Vibrational            109.723             16.601              8.821
 Vibration     1          0.656              1.784              1.825
 Vibration     2          0.657              1.780              1.806
 Vibration     3          0.758              1.490              0.998
 Vibration     4          0.791              1.406              0.861
 Vibration     5          0.793              1.400              0.851
 Vibration     6          0.881              1.193              0.596

 Normal termination of Gaussian 09 at Wed Mar 19 12:05:51 2025.
