 Gaussian 09, Revision D.01,
 Gaussian 09:  ES64L-G09RevD.01 24-Apr-2013

 -------------------------------
 #m062X/def2SVP OPT Freq=noraman
 -------------------------------

 ------------------------------
 5-iodo-1H-pyrimidine-2,4-dione
 ------------------------------
 Symbolic Z-matrix:
 Charge =  0 Multiplicity = 1

 SCF Done:  E(RM062X) =  -711.368654925     A.U. after   17 cycles
 SCF Done:  E(RM062X) =  -711.373126835     A.U. after   15 cycles
 SCF Done:  E(RM062X) =  -711.373420189     A.U. after   11 cycles
 SCF Done:  E(RM062X) =  -711.373452400     A.U. after   10 cycles
 SCF Done:  E(RM062X) =  -711.373454726     A.U. after   10 cycles
 SCF Done:  E(RM062X) =  -711.373456413     A.U. after   10 cycles
 Optimization completed.
    -- Stationary point found.
 Normal termination of Gaussian 09 at Sun Mar 16 20:07:11 2025.

 -------------------------------------------------------------------
 #N Geom=AllCheck Guess=TCheck SCRF=Check GenChk RM062X/def2SVP Freq
 -------------------------------------------------------------------

 Structure from the checkpoint file:  "/srv/scratch/z5358697/gauss/Gau-1923221.chk"
 ------------------------------
 5-iodo-1H-pyrimidine-2,4-dione
 ------------------------------
 Charge =  0 Multiplicity = 1

                         Standard orientation:
 ---------------------------------------------------------------------
 Center     Atomic      Atomic             Coordinates (Angstroms)
 Number     Number       Type             X           Y           Z
 ---------------------------------------------------------------------
      1          6           0       -0.844715   -1.328925   -0.000076
      2          6           0       -0.143490   -0.176063   -0.000151
      3          6           0       -0.856450    1.115247   -0.000550
      4          8           0       -0.351983    2.206097    0.000234
      5          7           0       -2.250835    0.964272   -0.000127
      6          6           0       -2.999574   -0.196911   -0.000017
      7          8           0       -4.201628   -0.226294    0.000253
      8          7           0       -2.214576   -1.343185   -0.000039
      9         53           0        1.936347   -0.131556    0.000034
     10          1           0       -0.358067   -2.305215    0.000022
     11          1           0       -2.787525    1.828115    0.000111
     12          1           0       -2.728659   -2.216542    0.000093
 ---------------------------------------------------------------------

 SCF Done:  E(RM062X) =  -711.373456413     A.U. after    1 cycles

 The electronic state is 1-A.
 Alpha  occ. eigenvalues --  -19.62752 -19.62674 -14.84381 -14.82507 -10.72277
 Alpha  occ. eigenvalues --  -10.69344 -10.65556 -10.61804  -7.11416  -5.11142
 Alpha  occ. eigenvalues --   -5.09591  -5.09586  -2.07977  -2.07402  -2.07398
 Alpha  occ. eigenvalues --   -2.06120  -2.06119  -1.20684  -1.17676  -1.09777
 Alpha  occ. eigenvalues --   -1.03773  -0.91520  -0.80647  -0.77698  -0.76055
 Alpha  occ. eigenvalues --   -0.66240  -0.65799  -0.60595  -0.58148  -0.56195
 Alpha  occ. eigenvalues --   -0.53307  -0.51446  -0.50338  -0.45989  -0.45074
 Alpha  occ. eigenvalues --   -0.38825  -0.36635  -0.36087  -0.35882  -0.32693
 Alpha  occ. eigenvalues --   -0.29254
 Alpha virt. eigenvalues --   -0.02023  -0.00343   0.04223   0.07304   0.10876
 Alpha virt. eigenvalues --    0.13399   0.15697   0.20304   0.21366   0.23983
 Alpha virt. eigenvalues --    0.26846   0.30076   0.30358   0.31839   0.35134

 Mulliken charges:
               1
     1  C    0.166511
     2  C   -0.386721
     3  C    0.289113
     4  O   -0.212913
     5  N   -0.239981
     6  C    0.272723
     7  O   -0.241728
     8  N   -0.210624
     9  I    0.136740
    10  H    0.067690
    11  H    0.180456
    12  H    0.178735
 Sum of Mulliken charges =   0.00000

 Dipole moment (field-independent basis, Debye):
    X=              0.0877    Y=             -3.8140    Z=             -0.0012  Tot=              3.8151
 Quadrupole moment (field-independent basis, Debye-Ang):
   XX=            -79.8427   YY=            -67.2011   ZZ=            -72.1909
   XY=              0.6674   XZ=              0.0024   YZ=             -0.0019

  Exact polarizability: 123.057  10.371  78.728  -0.001   0.002  40.290
 Approx polarizability: 143.935  20.410 109.896   0.001   0.006  55.767

                      1                      2                      3
                      A                      A                      A
 Frequencies --     88.6345               156.7828               164.1520
 Red. masses --      9.6836                 8.7577                11.9241
 Frc consts  --      0.0448                 0.1268                 0.1893
 IR Inten    --      0.8625                 1.2836                 1.5995

                      4                      5                      6
                      A                      A                      A
 Frequencies --    243.3997               262.4565               392.5439
 Red. masses --     15.7413                10.3014                 2.9693
 Frc consts  --      0.5495                 0.4181                 0.2696
 IR Inten    --      2.0037                 1.4845                18.5786

                      7                      8                      9
                      A                      A                      A
 Frequencies --    411.3653               544.7633               600.7147
 Red. masses --     12.1037                 8.6034                 1.1232
 Frc consts  --      1.2068                 1.5043                 0.2388
 IR Inten    --     22.8276                10.0713                65.1749

                     10                     11                     12
                      A                      A                      A
 Frequencies --    606.1071               623.8760               698.3612
 Red. masses --      7.0346                 6.6343                 1.2402
 Frc consts  --      1.5226                 1.5214                 0.3564
 IR Inten    --     14.0422                19.1754                51.1629

                     13                     14                     15
                      A                      A                      A
 Frequencies --    782.7561               791.8251               805.1618
 Red. masses --     10.0560                 8.9917                 6.1062
 Frc consts  --      3.6302                 3.3216                 2.3323
 IR Inten    --      0.0531                 1.1816               104.6584

                     16                     17                     18
                      A                      A                      A
 Frequencies --    927.9745               994.5743              1048.7991
 Red. masses --      1.3929                 2.8246                 5.6465
 Frc consts  --      0.7067                 1.6462                 3.6594
 IR Inten    --     10.6880                 7.8066                39.5101

                     19                     20                     21
                      A                      A                      A
 Frequencies --   1186.3612              1221.0713              1357.0255
 Red. masses --      1.9900                 1.9807                 1.9756
 Frc consts  --      1.6502                 1.7400                 2.1435
 IR Inten    --     60.7918                50.4547                 4.4656

                     22                     23                     24
                      A                      A                      A
 Frequencies --   1413.0837              1442.1796              1521.7908
 Red. masses --      1.8055                 3.7564                 3.5373
 Frc consts  --      2.1241                 4.6032                 4.8265
 IR Inten    --     16.7986               120.1238               187.8898

                     25                     26                     27
                      A                      A                      A
 Frequencies --   1715.5013              1892.7248              1922.6856
 Red. masses --      7.1573                10.5724                10.0820
 Frc consts  --     12.4104                22.3151                21.9590
 IR Inten    --    117.6154               551.1751               775.1896

                     28                     29                     30
                      A                      A                      A
 Frequencies --   3229.3096              3622.7817              3661.4801
 Red. masses --      1.0967                 1.0783                 1.0798
 Frc consts  --      6.7384                 8.3379                 8.5295
 IR Inten    --      1.7626               112.2311               165.0018

 - Thermochemistry -
 -------------------
 Temperature   298.150 Kelvin.  Pressure   1.00000 Atm.
 Atom     1 has atomic number  6 and mass  12.00000

 Molecular mass:   237.91985 amu.
 Principal axes and moments of inertia in atomic units:
                           1         2         3
     Eigenvalues --   606.069313684.857064290.92632
           X            0.99997   0.00820   0.00000
           Y           -0.00820   0.99997   0.00000
           Z            0.00000   0.00000   1.00000
 This molecule is an asymmetric top.
 Rotational symmetry number  1.
 Warning -- assumption of classical behavior for rotation
           may cause significant error
 Rotational temperatures (Kelvin)      0.14291     0.02351     0.02019
 Rotational constants (GHZ):           2.97778     0.48977     0.42059
 Zero-point vibrational energy     205340.5 (Joules/Mol)
                                   49.07755 (Kcal/Mol)
 Warning -- explicit consideration of  10 degrees of freedom as
           vibrations may cause significant error
 Vibrational temperatures:    127.53   225.58   236.18   350.20   377.62
          (Kelvin)            564.78   591.86   783.79   864.29   872.05
                              897.62  1004.78  1126.21  1139.26  1158.45
                             1335.15  1430.97  1508.99  1706.91  1756.85
                             1952.45  2033.11  2074.97  2189.51  2468.22
                             2723.21  2766.31  4646.25  5212.37  5268.05

 Zero-point correction=                           0.078210 (Hartree/Particle)
 Thermal correction to Energy=                    0.085821
 Thermal correction to Enthalpy=                  0.086766
 Thermal correction to Gibbs Free Energy=         0.043857
 Sum of electronic and zero-point Energies=           -711.295246
 Sum of electronic and thermal Energies=              -711.287635
 Sum of electronic and thermal Enthalpies=            -711.286691
 Sum of electronic and thermal Free Energies=         -711.329599

                     E (Thermal)             CV                S
                      KCal/Mol        Cal/Mol-Kelvin    Cal/Mol-Kelvin
 Total                   53.854             27.179             90.308
 Electronic               0.000              0.000              0.000
 Translational            0.889              2.981             42.302
 Rotational               0.889              2.981             30.639
 Vibrational             52.076             21.218             17.367
 Vibration     1          0.601              1.957              3.690
 Vibration     2          0.620              1.895              2.588
 Vibration     3          0.623              1.886              2.501
 Vibration     4          0.659              1.774              1.778
 Vibration     5          0.670              1.742              1.645
 Vibration     6          0.760              1.486              0.990
 Vibration     7          0.775              1.446              0.922
 Vibration     8          0.900              1.151              0.555
 Vibration     9          0.959              1.030              0.448
 Vibration    10          0.965              1.019              0.439

 Optimization completed.
    -- Stationary point found.
 Normal termination of Gaussian 09 at Sun Mar 16 20:10:35 2025.
