 Gaussian 09, Revision D.01,
 Gaussian 09:  ES64L-G09RevD.01 24-Apr-2013

 ---------------------------------
 #m062X/6-31+G(d) OPT Freq=noraman
 ---------------------------------

 ---------------------
 isoindoline-1,3-dione
 ---------------------
 Symbolic Z-matrix:
 Charge =  0 Multiplicity = 1

 SCF Done:  E(RM062X) =  -512.900464087     A.U. after   15 cycles
 SCF Done:  E(RM062X) =  -512.904984079     A.U. after   13 cycles
 SCF Done:  E(RM062X) =  -512.905191672     A.U. after   12 cycles
 SCF Done:  E(RM062X) =  -512.905196403     A.U. after   11 cycles
 SCF Done:  E(RM062X) =  -512.905196278     A.U. after   11 cycles
 SCF Done:  E(RM062X) =  -512.905197310     A.U. after   10 cycles
 Optimization completed.
    -- Stationary point found.
 Normal termination of Gaussian 09 at Tue Mar 18 19:21:57 2025.

 ---------------------------------------------------------------------
 #N Geom=AllCheck Guess=TCheck SCRF=Check GenChk RM062X/6-31+G(d) Freq
 ---------------------------------------------------------------------

 Structure from the checkpoint file:  "/srv/scratch/z5358697/gauss/Gau-794786.chk"
 ---------------------
 isoindoline-1,3-dione
 ---------------------
 Charge =  0 Multiplicity = 1

                         Standard orientation:
 ---------------------------------------------------------------------
 Center     Atomic      Atomic             Coordinates (Angstroms)
 Number     Number       Type             X           Y           Z
 ---------------------------------------------------------------------
      1          6           0       -2.552585    0.699431   -0.000003
      2          6           0       -2.552585   -0.699432    0.000008
      3          6           0       -1.355848   -1.423265    0.000011
      4          6           0       -0.178003   -0.695829   -0.000005
      5          6           0       -0.178003    0.695829   -0.000009
      6          6           0       -1.355848    1.423265   -0.000011
      7          6           0        1.243141    1.167602    0.000027
      8          8           0        1.668906    2.296026   -0.000023
      9          7           0        2.010984    0.000000    0.000054
     10          6           0        1.243141   -1.167602   -0.000010
     11          8           0        1.668906   -2.296025   -0.000027
     12          1           0       -3.499632    1.230653    0.000000
     13          1           0       -3.499632   -1.230653    0.000013
     14          1           0       -1.341889   -2.508884    0.000012
     15          1           0       -1.341889    2.508883   -0.000012
     16          1           0        3.023194    0.000000   -0.000043
 ---------------------------------------------------------------------

 SCF Done:  E(RM062X) =  -512.905197310     A.U. after    1 cycles

 The electronic state is 1-A.
 Alpha  occ. eigenvalues --  -19.65875 -19.65875 -14.82263 -10.69441 -10.69440
 Alpha  occ. eigenvalues --  -10.59326 -10.59260 -10.59184 -10.59169 -10.59046
 Alpha  occ. eigenvalues --  -10.58975  -1.21183  -1.19494  -1.08183  -0.99712
 Alpha  occ. eigenvalues --   -0.89597  -0.88460  -0.77398  -0.76580  -0.70555
 Alpha  occ. eigenvalues --   -0.68166  -0.61373  -0.60314  -0.57916  -0.56373
 Alpha  occ. eigenvalues --   -0.54049  -0.53804  -0.52895  -0.52429  -0.48725
 Alpha  occ. eigenvalues --   -0.46326  -0.46071  -0.44838  -0.37981  -0.36689
 Alpha  occ. eigenvalues --   -0.35324  -0.34130  -0.33895
 Alpha virt. eigenvalues --   -0.05964  -0.02201   0.00880   0.01787   0.02503
 Alpha virt. eigenvalues --    0.03889   0.04106   0.04711   0.05096   0.05180
 Alpha virt. eigenvalues --    0.07474   0.07497   0.07730   0.08066   0.10076

 Mulliken charges:
               1
     1  C   -0.079548
     2  C   -0.079548
     3  C   -0.655300
     4  C    0.281654
     5  C    0.281653
     6  C   -0.655300
     7  C    0.557373
     8  O   -0.495806
     9  N   -0.629804
    10  C    0.557373
    11  O   -0.495805
    12  H    0.221747
    13  H    0.221747
    14  H    0.249410
    15  H    0.249410
    16  H    0.470744
 Sum of Mulliken charges =   0.00000

 Dipole moment (field-independent basis, Debye):
    X=             -3.0199    Y=              0.0000    Z=              0.0000  Tot=              3.0199
 Quadrupole moment (field-independent basis, Debye-Ang):
   XX=            -52.9940   YY=            -72.6730   ZZ=            -64.2327
   XY=              0.0000   XZ=             -0.0004   YZ=              0.0000

  Exact polarizability: 122.410   0.000 120.669   0.000   0.000  50.676
 Approx polarizability: 145.838   0.000 167.594   0.000  -0.001  66.738

                      1                      2                      3
                      A                      A                      A
 Frequencies --    139.3255               145.1311               187.7130
 Red. masses --      4.9961                12.0574                 5.2840
 Frc consts  --      0.0571                 0.1496                 0.1097
 IR Inten    --      0.0000                 0.9015                 2.6534

                      4                      5                      6
                      A                      A                      A
 Frequencies --    241.8236               348.1275               414.5030
 Red. masses --      6.8325                11.3633                 3.0595
 Frc consts  --      0.2354                 0.8114                 0.3097
 IR Inten    --      0.2671                15.7758                 1.0748

                      7                      8                      9
                      A                      A                      A
 Frequencies --    466.4621               535.7029               537.5946
 Red. masses --      4.8271                 7.3952                 1.0878
 Frc consts  --      0.6188                 1.2504                 0.1852
 IR Inten    --      0.0000                11.2357               120.4407

                     10                     11                     12
                      A                      A                      A
 Frequencies --    555.3241               653.1832               666.9906
 Red. masses --      8.2586                11.7783                 4.9726
 Frc consts  --      1.5005                 2.9608                 1.3034
 IR Inten    --      9.3204                10.7744                 2.0980

                     13                     14                     15
                      A                      A                      A
 Frequencies --    678.8856               722.7630               764.3419
 Red. masses --      4.7950                 2.6400                 5.8564
 Frc consts  --      1.3021                 0.8126                 2.0158
 IR Inten    --      0.0000                86.2740                 2.9700

                     16                     17                     18
                      A                      A                      A
 Frequencies --    793.4811               804.2063               813.6079
 Red. masses --      7.0792                 1.7829                 4.1948
 Frc consts  --      2.6261                 0.6794                 1.6360
 IR Inten    --      0.0000                16.9295                 1.7424

                     19                     20                     21
                      A                      A                      A
 Frequencies --    920.0588               996.4908              1029.8643
 Red. masses --      1.3346                 1.3943                 1.3277
 Frc consts  --      0.6656                 0.8157                 0.8296
 IR Inten    --      0.0000                 1.7603                 0.0000

                     22                     23                     24
                      A                      A                      A
 Frequencies --   1049.8014              1063.9135              1114.3285
 Red. masses --      2.0586                 3.3547                 2.0290
 Frc consts  --      1.3367                 2.2372                 1.4844
 IR Inten    --      2.4024                77.3817                46.8736

                     25                     26                     27
                      A                      A                      A
 Frequencies --   1177.1577              1203.8112              1210.0331
 Red. masses --      1.4227                 2.1889                 2.1476
 Frc consts  --      1.1616                 1.8689                 1.8527
 IR Inten    --      0.0171                 0.2816                26.4665

                     28                     29                     30
                      A                      A                      A
 Frequencies --   1317.8806              1351.1631              1364.4278
 Red. masses --      1.5584                 7.4940                 1.9224
 Frc consts  --      1.5947                 8.0609                 2.1086
 IR Inten    --      0.3720               199.4996                47.4824

                     31                     32                     33
                      A                      A                      A
 Frequencies --   1418.9159              1522.8698              1525.7605
 Red. masses --      5.9251                 2.7065                 2.9069
 Frc consts  --      7.0284                 3.6981                 3.9871
 IR Inten    --    110.4529                10.2738                 0.2693

                     34                     35                     36
                      A                      A                      A
 Frequencies --   1698.1629              1706.1439              1874.1871
 Red. masses --      7.7132                 7.4632                10.4321
 Frc consts  --     13.1052                12.7999                21.5899
 IR Inten    --      2.6876                 6.9226               903.4070

                     37                     38                     39
                      A                      A                      A
 Frequencies --   1912.9838              3212.7560              3223.9057
 Red. masses --     13.0231                 1.0876                 1.0913
 Frc consts  --     28.0793                 6.6141                 6.6828
 IR Inten    --    141.0991                 1.0483                 2.5791

                     40                     41                     42
                      A                      A                      A
 Frequencies --   3232.8176              3236.6457              3646.2886
 Red. masses --      1.0950                 1.0980                 1.0804
 Frc consts  --      6.7428                 6.7773                 8.4635
 IR Inten    --      0.9740                 5.9028               120.3791

 - Thermochemistry -
 -------------------
 Temperature   298.150 Kelvin.  Pressure   1.00000 Atm.
 Atom     1 has atomic number  6 and mass  12.00000

 Molecular mass:   147.03203 amu.
 Principal axes and moments of inertia in atomic units:
                           1         2         3
     Eigenvalues --  1032.318611504.512622536.83123
           X            1.00000   0.00000   0.00000
           Y            0.00000   1.00000   0.00000
           Z            0.00000   0.00000   1.00000
 This molecule is an asymmetric top.
 Rotational symmetry number  1.
 Warning -- assumption of classical behavior for rotation
           may cause significant error
 Rotational temperatures (Kelvin)      0.08390     0.05757     0.03414
 Rotational constants (GHZ):           1.74824     1.19955     0.71142
 Zero-point vibrational energy     307916.0 (Joules/Mol)
                                   73.59369 (Kcal/Mol)
 Warning -- explicit consideration of  10 degrees of freedom as
           vibrations may cause significant error
 Vibrational temperatures:    200.46   208.81   270.08   347.93   500.88
          (Kelvin)            596.38   671.13   770.76   773.48   798.99
                              939.78   959.65   976.76  1039.89  1099.72
                             1141.64  1157.07  1170.60  1323.76  1433.73
                             1481.74  1510.43  1530.73  1603.27  1693.67
                             1732.01  1740.97  1896.13  1944.02  1963.10
                             2041.50  2191.07  2195.23  2443.27  2454.76
                             2696.53  2752.35  4622.43  4638.48  4651.30
                             4656.81  5246.19

 Zero-point correction=                           0.117279 (Hartree/Particle)
 Thermal correction to Energy=                    0.125106
 Thermal correction to Enthalpy=                  0.126050
 Thermal correction to Gibbs Free Energy=         0.084399
 Sum of electronic and zero-point Energies=           -512.787918
 Sum of electronic and thermal Energies=              -512.780091
 Sum of electronic and thermal Enthalpies=            -512.779147
 Sum of electronic and thermal Free Energies=         -512.820798

                     E (Thermal)             CV                S
                      KCal/Mol        Cal/Mol-Kelvin    Cal/Mol-Kelvin
 Total                   78.505             30.798             87.661
 Electronic               0.000              0.000              0.000
 Translational            0.889              2.981             40.867
 Rotational               0.889              2.981             29.756
 Vibrational             76.728             24.836             17.038
 Vibration     1          0.615              1.914              2.813
 Vibration     2          0.617              1.908              2.735
 Vibration     3          0.632              1.857              2.250
 Vibration     4          0.658              1.776              1.789
 Vibration     5          0.726              1.579              1.175
 Vibration     6          0.778              1.439              0.911
 Vibration     7          0.824              1.324              0.748
 Vibration     8          0.891              1.171              0.575
 Vibration     9          0.893              1.167              0.570
 Vibration    10          0.911              1.128              0.533

 Optimization completed.
    -- Stationary point found.
 Normal termination of Gaussian 09 at Tue Mar 18 19:32:58 2025.
