 Gaussian 09, Revision D.01,
 Gaussian 09:  ES64L-G09RevD.01 24-Apr-2013

 ---------------------------------
 #m062X/6-31+G(d) OPT Freq=noraman
 ---------------------------------

 ------------
 cyclopropane
 ------------
 Symbolic Z-matrix:
 Charge =  0 Multiplicity = 1

 SCF Done:  E(RM062X) =  -117.834200842     A.U. after   10 cycles
 SCF Done:  E(RM062X) =  -117.834246042     A.U. after    8 cycles
 SCF Done:  E(RM062X) =  -117.834241612     A.U. after    8 cycles
 Optimization completed.
    -- Stationary point found.
 Normal termination of Gaussian 09 at Fri Mar 14 15:59:27 2025.

 ---------------------------------------------------------------------
 #N Geom=AllCheck Guess=TCheck SCRF=Check GenChk RM062X/6-31+G(d) Freq
 ---------------------------------------------------------------------

 Structure from the checkpoint file:  "/srv/scratch/z5358697/gauss/Gau-2435646.chk"
 ------------
 cyclopropane
 ------------
 Charge =  0 Multiplicity = 1

                         Standard orientation:
 ---------------------------------------------------------------------
 Center     Atomic      Atomic             Coordinates (Angstroms)
 Number     Number       Type             X           Y           Z
 ---------------------------------------------------------------------
      1          6           0        0.625175   -0.602114   -0.000006
      2          6           0       -0.834186   -0.240327   -0.000007
      3          6           0        0.208805    0.842338   -0.000003
      4          1           0        1.048322   -1.008719   -0.912569
      5          1           0        1.048272   -1.008687    0.912606
      6          1           0       -1.398049   -0.402748   -0.912689
      7          1           0       -1.397965   -0.402739    0.912727
      8          1           0        0.350343    1.411776   -0.912646
      9          1           0        0.350309    1.411735    0.912669
 ---------------------------------------------------------------------

 SCF Done:  E(RM062X) =  -117.834241612     A.U. after    1 cycles

 The electronic state is 1-A.
 Alpha  occ. eigenvalues --  -10.54570 -10.54511 -10.54507  -0.95012  -0.68079
 Alpha  occ. eigenvalues --   -0.68070  -0.56919  -0.53230  -0.42581  -0.42575
 Alpha  occ. eigenvalues --   -0.35030  -0.35023
 Alpha virt. eigenvalues --    0.03763   0.03767   0.04305   0.05309   0.09342
 Alpha virt. eigenvalues --    0.09345   0.09815   0.09815   0.09976   0.11858
 Alpha virt. eigenvalues --    0.17211   0.17213   0.21501   0.23066   0.26960

 Mulliken charges:
               1
     1  C   -0.422677
     2  C   -0.422885
     3  C   -0.422587
     4  H    0.211358
     5  H    0.211355
     6  H    0.211365
     7  H    0.211363
     8  H    0.211355
     9  H    0.211353
 Sum of Mulliken charges =   0.00000

 Dipole moment (field-independent basis, Debye):
    X=              0.0013    Y=              0.0005    Z=              0.0000  Tot=              0.0013
 Quadrupole moment (field-independent basis, Debye-Ang):
   XX=            -20.9511   YY=            -20.9588   ZZ=            -18.4511
   XY=              0.0004   XZ=              0.0000   YZ=              0.0000

  Exact polarizability:  34.312  -0.055  34.303   0.000   0.000  30.655
 Approx polarizability:  37.335  -0.002  37.323   0.000   0.000  34.342

                      1                      2                      3
                      A                      A                      A
 Frequencies --    743.3741               751.0211               863.1379
 Red. masses --      1.0220                 1.0231                 1.0442
 Frc consts  --      0.3328                 0.3400                 0.4583
 IR Inten    --      0.0082                 0.0001                 0.7609

                      4                      5                      6
                      A                      A                      A
 Frequencies --    925.1390               926.1605              1056.4461
 Red. masses --      3.1533                 3.0348                 1.3712
 Frc consts  --      1.5901                 1.5338                 0.9017
 IR Inten    --     26.0570                26.7667                10.7875

                      7                      8                      9
                      A                      A                      A
 Frequencies --   1065.5208              1092.7765              1156.2999
 Red. masses --      1.3520                 1.4130                 1.0097
 Frc consts  --      0.9044                 0.9941                 0.7954
 IR Inten    --     10.3377                 1.4511                 0.0000

                     10                     11                     12
                      A                      A                      A
 Frequencies --   1217.2585              1218.6005              1246.5906
 Red. masses --      1.4433                 1.4492                 2.4563
 Frc consts  --      1.2600                 1.2679                 2.2489
 IR Inten    --      0.0000                 0.0009                 0.0004

                     13                     14                     15
                      A                      A                      A
 Frequencies --   1485.5710              1488.8271              1550.6805
 Red. masses --      1.0910                 1.0918                 1.3858
 Frc consts  --      1.4186                 1.4259                 1.9633
 IR Inten    --      0.9118                 0.8879                 0.0013

                     16                     17                     18
                      A                      A                      A
 Frequencies --   3165.8519              3169.7442              3183.2818
 Red. masses --      1.0508                 1.0562                 1.0589
 Frc consts  --      6.2052                 6.2525                 6.3219
 IR Inten    --     17.9269                11.0647                 7.6336

                     19                     20                     21
                      A                      A                      A
 Frequencies --   3246.5989              3253.0057              3271.0690
 Red. masses --      1.1206                 1.1201                 1.1164
 Frc consts  --      6.9592                 6.9832                 7.0377
 IR Inten    --      0.0246                 2.6418                19.7077

 - Thermochemistry -
 -------------------
 Temperature   298.150 Kelvin.  Pressure   1.00000 Atm.
 Atom     1 has atomic number  6 and mass  12.00000

 Molecular mass:    42.04695 amu.
 Principal axes and moments of inertia in atomic units:
                           1         2         3
     Eigenvalues --    89.24016  89.28480 142.55222
           X            0.99953   0.03071   0.00000
           Y           -0.03071   0.99953   0.00000
           Z            0.00000   0.00000   1.00000
 This molecule is an asymmetric top.
 Rotational symmetry number  1.
 Rotational temperatures (Kelvin)      0.97057     0.97008     0.60759
 Rotational constants (GHZ):          20.22342    20.21331    12.66021
 Zero-point vibrational energy     215788.1 (Joules/Mol)
                                   51.57460 (Kcal/Mol)
 Vibrational temperatures:   1069.55  1080.55  1241.86  1331.07  1332.54
          (Kelvin)           1519.99  1533.04  1572.26  1663.66  1751.36
                             1753.29  1793.56  2137.40  2142.09  2231.08
                             4554.95  4560.55  4580.03  4671.13  4680.34
                             4706.33

 Zero-point correction=                           0.082189 (Hartree/Particle)
 Thermal correction to Energy=                    0.085535
 Thermal correction to Enthalpy=                  0.086479
 Thermal correction to Gibbs Free Energy=         0.057914
 Sum of electronic and zero-point Energies=           -117.752052
 Sum of electronic and thermal Energies=              -117.748706
 Sum of electronic and thermal Enthalpies=            -117.747762
 Sum of electronic and thermal Free Energies=         -117.776327

                     E (Thermal)             CV                S
                      KCal/Mol        Cal/Mol-Kelvin    Cal/Mol-Kelvin
 Total                   53.674             10.864             60.121
 Electronic               0.000              0.000              0.000
 Translational            0.889              2.981             37.136
 Rotational               0.889              2.981             21.657
 Vibrational             51.897              4.902              1.329

 Optimization completed.
    -- Stationary point found.
 Normal termination of Gaussian 09 at Fri Mar 14 16:00:01 2025.
