 Gaussian 09, Revision D.01,
 Gaussian 09:  ES64L-G09RevD.01 24-Apr-2013

 ---------------------------------
 #m062X/6-31+G(d) OPT Freq=noraman
 ---------------------------------

 ----------------
 3-chloropyridine
 ----------------
 Symbolic Z-matrix:
 Charge =  0 Multiplicity = 1

 SCF Done:  E(RM062X) =  -707.746849760     A.U. after   14 cycles
 SCF Done:  E(RM062X) =  -707.748339738     A.U. after   12 cycles
 SCF Done:  E(RM062X) =  -707.748461962     A.U. after   11 cycles
 SCF Done:  E(RM062X) =  -707.748464185     A.U. after   10 cycles
 Optimization completed.
    -- Stationary point found.
 Normal termination of Gaussian 09 at Sat Mar 15 12:40:06 2025.

 ---------------------------------------------------------------------
 #N Geom=AllCheck Guess=TCheck SCRF=Check GenChk RM062X/6-31+G(d) Freq
 ---------------------------------------------------------------------

 Structure from the checkpoint file:  "/srv/scratch/z5358697/gauss/Gau-597476.chk"
 ----------------
 3-chloropyridine
 ----------------
 Charge =  0 Multiplicity = 1

                         Standard orientation:
 ---------------------------------------------------------------------
 Center     Atomic      Atomic             Coordinates (Angstroms)
 Number     Number       Type             X           Y           Z
 ---------------------------------------------------------------------
      1          6           0       -1.596981    1.155139   -0.000013
      2          6           0       -0.207317    1.218710    0.000015
      3          6           0        0.493411    0.019267    0.000027
      4          6           0       -0.204995   -1.187854    0.000006
      5          7           0       -1.535131   -1.246559   -0.000009
      6          6           0       -2.211215   -0.095927    0.000016
      7         17           0        2.231739    0.009053   -0.000008
      8          1           0       -2.194113    2.061200   -0.000047
      9          1           0        0.322790    2.166077    0.000003
     10          1           0        0.335188   -2.131463   -0.000015
     11          1           0       -3.294934   -0.179816   -0.000046
 ---------------------------------------------------------------------

 SCF Done:  E(RM062X) =  -707.748464185     A.U. after    1 cycles

 The electronic state is 1-A.
 Alpha  occ. eigenvalues -- -102.68480 -14.78272 -10.63356 -10.60739 -10.60264
 Alpha  occ. eigenvalues --  -10.59433 -10.58309  -9.83147  -7.55559  -7.54881
 Alpha  occ. eigenvalues --   -7.54870  -1.07752  -0.99031  -0.91336  -0.85784
 Alpha  occ. eigenvalues --   -0.74046  -0.71952  -0.62049  -0.58011  -0.55309
 Alpha  occ. eigenvalues --   -0.51298  -0.50243  -0.49559  -0.45215  -0.42836
 Alpha  occ. eigenvalues --   -0.39675  -0.35915  -0.33983  -0.31871
 Alpha virt. eigenvalues --   -0.01450  -0.00286   0.01517   0.02455   0.03367
 Alpha virt. eigenvalues --    0.04218   0.05211   0.05703   0.06297   0.07325
 Alpha virt. eigenvalues --    0.08875   0.09390   0.09396   0.11139   0.12832

 Mulliken charges:
               1
     1  C   -0.032889
     2  C   -0.165456
     3  C    0.146772
     4  C   -0.523120
     5  N   -0.133221
     6  C   -0.309074
     7  Cl   0.114290
     8  H    0.225448
     9  H    0.239925
    10  H    0.225637
    11  H    0.211688
 Sum of Mulliken charges =   0.00000

 Dipole moment (field-independent basis, Debye):
    X=             -0.6354    Y=              2.0788    Z=              0.0000  Tot=              2.1737
 Quadrupole moment (field-independent basis, Debye-Ang):
   XX=            -46.8898   YY=            -45.5952   ZZ=            -49.9104
   XY=             -4.9063   XZ=              0.0001   YZ=             -0.0001

  Exact polarizability:  99.176  -1.832  74.576   0.000   0.002  40.633
 Approx polarizability: 120.369  -1.311  99.523   0.000   0.000  50.837

                      1                      2                      3
                      A                      A                      A
 Frequencies --    191.3722               292.7867               415.4639
 Red. masses --      4.6735                 6.3227                 3.1685
 Frc consts  --      0.1008                 0.3193                 0.3222
 IR Inten    --      0.0045                 1.0760                 2.9686

                      4                      5                      6
                      A                      A                      A
 Frequencies --    431.2102               471.7641               624.8850
 Red. masses --     11.8065                 4.1756                 7.8139
 Frc consts  --      1.2935                 0.5475                 1.7977
 IR Inten    --      4.7532                 0.4981                 4.4440

                      7                      8                      9
                      A                      A                      A
 Frequencies --    718.4953               751.0534               820.9486
 Red. masses --      2.4500                 7.6732                 1.4725
 Frc consts  --      0.7452                 2.5502                 0.5847
 IR Inten    --     28.0040                13.2049                33.4432

                     10                     11                     12
                      A                      A                      A
 Frequencies --    949.1128               975.0777              1019.9208
 Red. masses --      1.3352                 1.3698                 1.3781
 Frc consts  --      0.7086                 0.7673                 0.8446
 IR Inten    --      0.5060                 0.6423                 0.0005

                     13                     14                     15
                      A                      A                      A
 Frequencies --   1031.9113              1082.2922              1146.5020
 Red. masses --      5.6466                 2.7742                 1.6244
 Frc consts  --      3.5426                 1.9146                 1.2581
 IR Inten    --     29.5357                 2.1805                19.4556

                     16                     17                     18
                      A                      A                      A
 Frequencies --   1154.8513              1237.1380              1297.7851
 Red. masses --      1.9436                 1.4726                 5.2562
 Frc consts  --      1.5273                 1.3279                 5.2159
 IR Inten    --     40.4365                 3.2396                 0.6350

                     19                     20                     21
                      A                      A                      A
 Frequencies --   1359.1376              1475.8228              1523.3789
 Red. masses --      1.2934                 2.3277                 2.2547
 Frc consts  --      1.4077                 2.9871                 3.0829
 IR Inten    --      1.7158                41.1175                28.1824

                     22                     23                     24
                      A                      A                      A
 Frequencies --   1666.3573              1668.7130              3214.6012
 Red. masses --      6.3023                 6.8339                 1.0896
 Frc consts  --     10.3107                11.2119                 6.6337
 IR Inten    --      5.8233                 8.0998                14.3512

                     25                     26                     27
                      A                      A                      A
 Frequencies --   3217.3958              3228.7119              3252.5324
 Red. masses --      1.0932                 1.0926                 1.0970
 Frc consts  --      6.6674                 6.7105                 6.8373
 IR Inten    --      0.6876                 1.5805                 5.9480

 - Thermochemistry -
 -------------------
 Temperature   298.150 Kelvin.  Pressure   1.00000 Atm.
 Atom     1 has atomic number  6 and mass  12.00000

 Molecular mass:   113.00323 amu.
 Principal axes and moments of inertia in atomic units:
                           1         2         3
     Eigenvalues --   307.692441128.609971436.30242
           X            0.99984  -0.01765   0.00000
           Y            0.01765   0.99984   0.00000
           Z            0.00000   0.00000   1.00000
 This molecule is an asymmetric top.
 Rotational symmetry number  1.
 Rotational temperatures (Kelvin)      0.28149     0.07674     0.06030
 Rotational constants (GHZ):           5.86541     1.59908     1.25652
 Zero-point vibrational energy     210657.7 (Joules/Mol)
                                   50.34840 (Kcal/Mol)
 Warning -- explicit consideration of   5 degrees of freedom as
           vibrations may cause significant error
 Vibrational temperatures:    275.34   421.25   597.76   620.41   678.76
          (Kelvin)            899.07  1033.75  1080.60  1181.16  1365.56
                             1402.92  1467.44  1484.69  1557.18  1649.56
                             1661.57  1779.96  1867.22  1955.49  2123.38
                             2191.80  2397.51  2400.90  4625.09  4629.11
                             4645.39  4679.66

 Zero-point correction=                           0.080235 (Hartree/Particle)
 Thermal correction to Energy=                    0.085580
 Thermal correction to Enthalpy=                  0.086524
 Thermal correction to Gibbs Free Energy=         0.050527
 Sum of electronic and zero-point Energies=           -707.668229
 Sum of electronic and thermal Energies=              -707.662885
 Sum of electronic and thermal Enthalpies=            -707.661940
 Sum of electronic and thermal Free Energies=         -707.697938

                     E (Thermal)             CV                S
                      KCal/Mol        Cal/Mol-Kelvin    Cal/Mol-Kelvin
 Total                   53.702             19.779             75.762
 Electronic               0.000              0.000              0.000
 Translational            0.889              2.981             40.082
 Rotational               0.889              2.981             27.702
 Vibrational             51.925             13.817              7.977
 Vibration     1          0.634              1.852              2.215
 Vibration     2          0.688              1.687              1.458
 Vibration     3          0.779              1.437              0.908
 Vibration     4          0.792              1.402              0.855
 Vibration     5          0.829              1.313              0.733

 Optimization completed.
    -- Stationary point found.
 Normal termination of Gaussian 09 at Sat Mar 15 12:42:52 2025.
