 Gaussian 09, Revision D.01,
 Gaussian 09:  ES64L-G09RevD.01 24-Apr-2013

 ---------------------------------
 #m062X/6-31+G(d) OPT Freq=noraman
 ---------------------------------

 -------
 pyrrole
 -------
 Symbolic Z-matrix:
 Charge =  0 Multiplicity = 1

 SCF Done:  E(RM062X) =  -210.081337376     A.U. after   11 cycles
 SCF Done:  E(RM062X) =  -210.081396441     A.U. after   10 cycles
 SCF Done:  E(RM062X) =  -210.081404459     A.U. after    8 cycles
 SCF Done:  E(RM062X) =  -210.081404669     A.U. after    8 cycles
 Optimization completed.
    -- Stationary point found.

 1\1\GINC-KATANA1\FOpt\RM062X\6-31+G(d)\C4H5N1\Z5358697\15-Mar-2025\0\\
 #m062X/6-31+G(d) OPT Freq=noraman\\pyrrole\\0,1\C,0.2851507219,0.01744
 49468,1.0426382131\C,1.5221691411,0.473256575,1.5795463443\C,1.4587134
 937,0.31766622,2.9454392448\N,0.2321427622,-0.213610721,3.2478881722\C
 ,-0.4915866455,-0.4001489487,2.099143575\H,-0.0025428502,-0.001639895,
 0.0008790297\H,2.3625844146,0.8697339281,1.027368128\H,2.1776580766,0.
 5386000114,3.7206517615\H,-0.0900783096,-0.43399764,4.1774267339\H,-1.
 4898108047,-0.8116044765,2.1291187976\\Version=ES64L-G09RevD.01\State=

 Normal termination of Gaussian 09 at Sat Mar 15 12:36:43 2025.

 ---------------------------------------------------------------------
 #N Geom=AllCheck Guess=TCheck SCRF=Check GenChk RM062X/6-31+G(d) Freq
 ---------------------------------------------------------------------

 Structure from the checkpoint file:  "/srv/scratch/z5358697/gauss/Gau-989796.chk"
 -------
 pyrrole
 -------
 Charge =  0 Multiplicity = 1

                         Standard orientation:
 ---------------------------------------------------------------------
 Center     Atomic      Atomic             Coordinates (Angstroms)
 Number     Number       Type             X           Y           Z
 ---------------------------------------------------------------------
      1          6           0        0.982043   -0.711549    0.000246
      2          6           0        0.981777    0.711915   -0.000079
      3          6           0       -0.331925    1.121896   -0.000118
      4          7           0       -1.118746   -0.000208    0.000270
      5          6           0       -0.331511   -1.122017   -0.000382
      6          1           0        1.846524   -1.360445    0.000423
      7          1           0        1.846042    1.361098   -0.000084
      8          1           0       -0.768755    2.109736   -0.000292
      9          1           0       -2.126932   -0.000376    0.000490
     10          1           0       -0.767963   -2.110022   -0.000432
 ---------------------------------------------------------------------

 SCF Done:  E(RM062X) =  -210.081404669     A.U. after    1 cycles

 The electronic state is 1-A.
 Alpha  occ. eigenvalues --  -14.81111 -10.56903 -10.56901 -10.53056 -10.52992
 Alpha  occ. eigenvalues --   -1.08860  -0.86856  -0.81477  -0.67042  -0.64352
 Alpha  occ. eigenvalues --   -0.62212  -0.49517  -0.48825  -0.48079  -0.45099
 Alpha  occ. eigenvalues --   -0.43435  -0.29897  -0.26473
 Alpha virt. eigenvalues --    0.01303   0.03601   0.04429   0.05352   0.05393
 Alpha virt. eigenvalues --    0.06452   0.08839   0.09281   0.09497   0.10360
 Alpha virt. eigenvalues --    0.11174   0.12166   0.12438   0.15879   0.16897

 Mulliken charges:
               1
     1  C   -0.170889
     2  C   -0.170893
     3  C   -0.223984
     4  N   -0.471012
     5  C   -0.223985
     6  H    0.205853
     7  H    0.205853
     8  H    0.212532
     9  H    0.423995
    10  H    0.212531
 Sum of Mulliken charges =   0.00000

 Dipole moment (field-independent basis, Debye):
    X=             -1.9792    Y=             -0.0004    Z=              0.0002  Tot=              1.9792
 Quadrupole moment (field-independent basis, Debye-Ang):
   XX=            -23.6721   YY=            -26.9755   ZZ=            -34.7680
   XY=              0.0005   XZ=             -0.0003   YZ=             -0.0005

  Exact polarizability:  56.772   0.000  58.136   0.002   0.001  34.115
 Approx polarizability:  72.284   0.000  70.369   0.004   0.002  40.343

                      1                      2                      3
                      A                      A                      A
 Frequencies --    504.2019               628.7575               642.7039
 Red. masses --      1.4601                 2.9226                 2.1178
 Frc consts  --      0.2187                 0.6808                 0.5154
 IR Inten    --     94.5481                 0.0000                 0.0089

                      4                      5                      6
                      A                      A                      A
 Frequencies --    702.4428               741.0334               856.6326
 Red. masses --      1.3335                 1.2179                 1.2457
 Frc consts  --      0.3877                 0.3940                 0.5386
 IR Inten    --      0.0001               168.4457                 5.6453

                      7                      8                      9
                      A                      A                      A
 Frequencies --    875.5704               899.6751               912.5296
 Red. masses --      5.2180                 3.9353                 1.3054
 Frc consts  --      2.3569                 1.8767                 0.6404
 IR Inten    --      1.9949                 0.5547                 0.0000

                     10                     11                     12
                      A                      A                      A
 Frequencies --   1051.1593              1084.8630              1106.7269
 Red. masses --      1.3682                 1.3053                 1.4401
 Frc consts  --      0.8907                 0.9051                 1.0393
 IR Inten    --     30.0396                26.4357                10.6328

                     13                     14                     15
                      A                      A                      A
 Frequencies --   1175.1982              1197.8796              1318.2745
 Red. masses --      1.2282                 4.2594                 1.3611
 Frc consts  --      0.9994                 3.6010                 1.3936
 IR Inten    --      3.9151                 4.0665                 2.1592

                     16                     17                     18
                      A                      A                      A
 Frequencies --   1453.6394              1492.2482              1530.3897
 Red. masses --      4.3087                 3.3766                 3.0447
 Frc consts  --      5.3642                 4.4301                 4.2015
 IR Inten    --      3.6687                 9.3561                14.5318

                     19                     20                     21
                      A                      A                      A
 Frequencies --   1609.5536              3274.6715              3278.8267
 Red. masses --      3.3554                 1.0894                 1.0945
 Frc consts  --      5.1216                 6.8830                 6.9330
 IR Inten    --      2.6892                 0.5034                 1.2743

                     22                     23                     24
                      A                      A                      A
 Frequencies --   3294.6208              3306.2397              3695.9090
 Red. masses --      1.1000                 1.1064                 1.0815
 Frc consts  --      7.0346                 7.1255                 8.7043
 IR Inten    --      3.8753                 0.8177                80.1997

 - Thermochemistry -
 -------------------
 Temperature   298.150 Kelvin.  Pressure   1.00000 Atm.
 Atom     1 has atomic number  6 and mass  12.00000

 Molecular mass:    67.04220 amu.
 Principal axes and moments of inertia in atomic units:
                           1         2         3
     Eigenvalues --   196.67139 199.71783 396.38918
           X            1.00000  -0.00012   0.00000
           Y            0.00012   1.00000  -0.00001
           Z            0.00000   0.00001   1.00000
 This molecule is an asymmetric top.
 Rotational symmetry number  1.
 Rotational temperatures (Kelvin)      0.44040     0.43368     0.21851
 Rotational constants (GHZ):           9.17643     9.03646     4.55295
 Zero-point vibrational energy     219118.5 (Joules/Mol)
                                   52.37057 (Kcal/Mol)
 Warning -- explicit consideration of   1 degrees of freedom as
           vibrations may cause significant error
 Vibrational temperatures:    725.43   904.64   924.71  1010.66  1066.18
          (Kelvin)           1232.50  1259.75  1294.43  1312.92  1512.38
                             1560.87  1592.33  1690.85  1723.48  1896.70
                             2091.46  2147.01  2201.89  2315.79  4711.52
                             4717.49  4740.22  4756.94  5317.58

 Zero-point correction=                           0.083458 (Hartree/Particle)
 Thermal correction to Energy=                    0.087377
 Thermal correction to Enthalpy=                  0.088321
 Thermal correction to Gibbs Free Energy=         0.057089
 Sum of electronic and zero-point Energies=           -209.997947
 Sum of electronic and thermal Energies=              -209.994028
 Sum of electronic and thermal Enthalpies=            -209.993084
 Sum of electronic and thermal Free Energies=         -210.024316

                     E (Thermal)             CV                S
                      KCal/Mol        Cal/Mol-Kelvin    Cal/Mol-Kelvin
 Total                   54.830             14.516             65.733
 Electronic               0.000              0.000              0.000
 Translational            0.889              2.981             38.526
 Rotational               0.889              2.981             24.258
 Vibrational             53.052              8.555              2.949
 Vibration     1          0.859              1.241              0.648

 Optimization completed.
    -- Stationary point found.

 1\1\GINC-KATANA1\Freq\RM062X\6-31+G(d)\C4H5N1\Z5358697\15-Mar-2025\0\\
 #N Geom=AllCheck Guess=TCheck SCRF=Check GenChk RM062X/6-31+G(d) Freq\
 \pyrrole\\0,1\C,0.2851507219,0.0174449468,1.0426382131\C,1.5221691411,
 0.473256575,1.5795463443\C,1.4587134937,0.31766622,2.9454392448\N,0.23
 21427622,-0.213610721,3.2478881722\C,-0.4915866455,-0.4001489487,2.099
 143575\H,-0.0025428502,-0.001639895,0.0008790297\H,2.3625844146,0.8697
 339281,1.027368128\H,2.1776580766,0.5386000114,3.7206517615\H,-0.09007
 83096,-0.43399764,4.1774267339\H,-1.4898108047,-0.8116044765,2.1291187

 Normal termination of Gaussian 09 at Sat Mar 15 12:38:03 2025.
