 Gaussian 09, Revision D.01,
 Gaussian 09:  ES64L-G09RevD.01 24-Apr-2013

 ---------------------------------
 #m062X/6-31+G(d) OPT Freq=noraman
 ---------------------------------

 ------------------
 2-methylprop-1-ene
 ------------------
 Symbolic Z-matrix:
 Charge =  0 Multiplicity = 1

 SCF Done:  E(RM062X) =  -157.134418533     A.U. after   11 cycles
 SCF Done:  E(RM062X) =  -157.136030004     A.U. after   11 cycles
 SCF Done:  E(RM062X) =  -157.137528515     A.U. after   12 cycles
 SCF Done:  E(RM062X) =  -157.138583160     A.U. after   12 cycles
 SCF Done:  E(RM062X) =  -157.138786745     A.U. after   11 cycles
 SCF Done:  E(RM062X) =  -157.138807335     A.U. after    9 cycles
 SCF Done:  E(RM062X) =  -157.138807841     A.U. after    8 cycles
 Optimization completed.
    -- Stationary point found.
 Normal termination of Gaussian 09 at Thu Mar 20 23:35:36 2025.

 ---------------------------------------------------------------------
 #N Geom=AllCheck Guess=TCheck SCRF=Check GenChk RM062X/6-31+G(d) Freq
 ---------------------------------------------------------------------

 Structure from the checkpoint file:  "/srv/scratch/z5358697/gauss/Gau-2197048.chk"
 ------------------
 2-methylprop-1-ene
 ------------------
 Charge =  0 Multiplicity = 1

                         Standard orientation:
 ---------------------------------------------------------------------
 Center     Atomic      Atomic             Coordinates (Angstroms)
 Number     Number       Type             X           Y           Z
 ---------------------------------------------------------------------
      1          6           0        1.272875   -0.679859    0.000013
      2          6           0       -0.000016    0.124638   -0.000052
      3          6           0        0.000157    1.459657   -0.000004
      4          6           0       -1.273001   -0.679631    0.000021
      5          1           0        1.317668   -1.332209    0.880951
      6          1           0        1.317660   -1.331931   -0.881100
      7          1           0        2.158154   -0.038565    0.000154
      8          1           0       -0.926394    2.027955    0.000082
      9          1           0        0.926837    2.027725    0.000073
     10          1           0       -1.317720   -1.332324    0.880706
     11          1           0       -2.158126   -0.038113    0.000591
     12          1           0       -1.318167   -1.331370   -0.881317
 ---------------------------------------------------------------------

 SCF Done:  E(RM062X) =  -157.138807841     A.U. after    1 cycles

 The electronic state is 1-A.
 Alpha  occ. eigenvalues --  -10.55971 -10.54136 -10.54134 -10.53329  -0.90829
 Alpha  occ. eigenvalues --   -0.78566  -0.77120  -0.60085  -0.52315  -0.51311
 Alpha  occ. eigenvalues --   -0.50181  -0.45166  -0.43541  -0.42635  -0.39778
 Alpha  occ. eigenvalues --   -0.30202
 Alpha virt. eigenvalues --    0.03141   0.03335   0.04393   0.04610   0.05814
 Alpha virt. eigenvalues --    0.06159   0.07923   0.08199   0.09033   0.11613
 Alpha virt. eigenvalues --    0.12054   0.12908   0.15240   0.16307   0.17347

 Mulliken charges:
               1
     1  C   -0.807523
     2  C    0.465504
     3  C   -0.507988
     4  C   -0.807493
     5  H    0.215843
     6  H    0.215847
     7  H    0.210007
     8  H    0.187045
     9  H    0.187051
    10  H    0.215831
    11  H    0.210005
    12  H    0.215871
 Sum of Mulliken charges =   0.00000

 Dipole moment (field-independent basis, Debye):
    X=             -0.0001    Y=             -0.5453    Z=              0.0001  Tot=              0.5453
 Quadrupole moment (field-independent basis, Debye-Ang):
   XX=            -25.9763   YY=            -26.4528   ZZ=            -28.7099
   XY=              0.0002   XZ=              0.0001   YZ=              0.0002

  Exact polarizability:  46.411   0.001  60.291   0.000   0.000  37.273
 Approx polarizability:  47.357   0.003  69.610   0.001   0.001  43.065

                      1                      2                      3
                      A                      A                      A
 Frequencies --    171.8520               219.1332               381.4215
 Red. masses --      1.0242                 1.0821                 2.1737
 Frc consts  --      0.0178                 0.0306                 0.1863
 IR Inten    --      0.0000                 0.7977                 0.1578

                      4                      5                      6
                      A                      A                      A
 Frequencies --    428.3935               440.1780               710.0763
 Red. masses --      2.1340                 2.1026                 1.0094
 Frc consts  --      0.2307                 0.2400                 0.2999
 IR Inten    --      8.5705                 1.2570                 0.0000

                      7                      8                      9
                      A                      A                      A
 Frequencies --    836.6610               945.7294               975.6888
 Red. masses --      3.3802                 1.3213                 1.3164
 Frc consts  --      1.3941                 0.6963                 0.7384
 IR Inten    --      0.1078                58.3295                 0.1447

                     10                     11                     12
                      A                      A                      A
 Frequencies --    996.9281              1024.2862              1092.9425
 Red. masses --      1.5333                 1.2358                 1.4475
 Frc consts  --      0.8979                 0.7639                 1.0188
 IR Inten    --      0.1187                 0.0000                 2.3658

                     13                     14                     15
                      A                      A                      A
 Frequencies --   1114.0409              1318.5493              1429.3317
 Red. masses --      1.6952                 2.3655                 1.1875
 Frc consts  --      1.2396                 2.4231                 1.4293
 IR Inten    --      0.0679                 2.1862                 0.6158

                     16                     17                     18
                      A                      A                      A
 Frequencies --   1436.0662              1465.1918              1498.9555
 Red. masses --      1.5018                 1.2012                 1.0469
 Frc consts  --      1.8248                 1.5193                 1.3859
 IR Inten    --     12.9385                 1.1721                 0.0001

                     19                     20                     21
                      A                      A                      A
 Frequencies --   1509.0078              1517.6770              1526.5992
 Red. masses --      1.0437                 1.0424                 1.0670
 Frc consts  --      1.4003                 1.4146                 1.4651
 IR Inten    --      5.4634                20.5808                14.7824

                     22                     23                     24
                      A                      A                      A
 Frequencies --   1758.6469              3063.5139              3067.2963
 Red. masses --      5.2178                 1.0372                 1.0378
 Frc consts  --      9.5081                 5.7355                 5.7526
 IR Inten    --     19.8021                19.1940                33.6950

                     25                     26                     27
                      A                      A                      A
 Frequencies --   3119.7726              3121.4282              3163.8954
 Red. masses --      1.1006                 1.1000                 1.1013
 Frc consts  --      6.3113                 6.3146                 6.4952
 IR Inten    --      0.0003                35.7484                24.1685

                     28                     29                     30
                      A                      A                      A
 Frequencies --   3164.9817              3176.8485              3258.0265
 Red. masses --      1.1007                 1.0609                 1.1166
 Frc consts  --      6.4963                 6.3082                 6.9834
 IR Inten    --     15.2783                 6.6142                16.2893

 - Thermochemistry -
 -------------------
 Temperature   298.150 Kelvin.  Pressure   1.00000 Atm.
 Atom     1 has atomic number  6 and mass  12.00000

 Molecular mass:    56.06260 amu.
 Principal axes and moments of inertia in atomic units:
                           1         2         3
     Eigenvalues --   197.77832 214.75473 390.18483
           X            1.00000  -0.00003   0.00000
           Y            0.00003   1.00000   0.00000
           Z            0.00000   0.00000   1.00000
 This molecule is an asymmetric top.
 Rotational symmetry number  1.
 Rotational temperatures (Kelvin)      0.43793     0.40332     0.22198
 Rotational constants (GHZ):           9.12507     8.40373     4.62535
 Zero-point vibrational energy     286703.7 (Joules/Mol)
                                   68.52383 (Kcal/Mol)
 Warning -- explicit consideration of   5 degrees of freedom as
           vibrations may cause significant error
 Vibrational temperatures:    247.26   315.28   548.78   616.36   633.32
          (Kelvin)           1021.64  1203.77  1360.69  1403.80  1434.36
                             1473.72  1572.50  1602.85  1897.10  2056.49
                             2066.18  2108.08  2156.66  2171.12  2183.60
                             2196.43  2530.30  4407.71  4413.15  4488.65
                             4491.03  4552.13  4553.70  4570.77  4687.57

 Zero-point correction=                           0.109200 (Hartree/Particle)
 Thermal correction to Energy=                    0.114485
 Thermal correction to Enthalpy=                  0.115429
 Thermal correction to Gibbs Free Energy=         0.081917
 Sum of electronic and zero-point Energies=           -157.029608
 Sum of electronic and thermal Energies=              -157.024323
 Sum of electronic and thermal Enthalpies=            -157.023379
 Sum of electronic and thermal Free Energies=         -157.056891

                     E (Thermal)             CV                S
                      KCal/Mol        Cal/Mol-Kelvin    Cal/Mol-Kelvin
 Total                   71.840             18.215             70.532
 Electronic               0.000              0.000              0.000
 Translational            0.889              2.981             37.993
 Rotational               0.889              2.981             24.320
 Vibrational             70.063             12.253              8.220
 Vibration     1          0.626              1.877              2.415
 Vibration     2          0.647              1.812              1.966
 Vibration     3          0.751              1.510              1.034
 Vibration     4          0.790              1.408              0.864
 Vibration     5          0.800              1.383              0.826

 Optimization completed.
    -- Stationary point found.
 Normal termination of Gaussian 09 at Thu Mar 20 23:36:54 2025.
