 Gaussian 09, Revision D.01,
 Gaussian 09:  ES64L-G09RevD.01 24-Apr-2013

 ---------------------------------
 #m062X/6-31+G(d) OPT Freq=noraman
 ---------------------------------

 ----------
 chloroform
 ----------
 Symbolic Z-matrix:
 Charge =  0 Multiplicity = 1

 SCF Done:  E(RM062X) =  -1419.16721249     A.U. after   10 cycles
 SCF Done:  E(RM062X) =  -1419.16732971     A.U. after   10 cycles
 SCF Done:  E(RM062X) =  -1419.16724468     A.U. after    9 cycles
 SCF Done:  E(RM062X) =  -1419.16726064     A.U. after    9 cycles
 Optimization completed.
    -- Stationary point found.
 Normal termination of Gaussian 09 at Thu Mar 13 14:54:51 2025.

 ---------------------------------------------------------------------
 #N Geom=AllCheck Guess=TCheck SCRF=Check GenChk RM062X/6-31+G(d) Freq
 ---------------------------------------------------------------------

 Structure from the checkpoint file:  "/srv/scratch/z5358697/gauss/Gau-1665114.chk"
 ----------
 chloroform
 ----------
 Charge =  0 Multiplicity = 1

                         Standard orientation:
 ---------------------------------------------------------------------
 Center     Atomic      Atomic             Coordinates (Angstroms)
 Number     Number       Type             X           Y           Z
 ---------------------------------------------------------------------
      1          6           0       -0.000117    0.000405    0.455783
      2         17           0       -1.288057    1.088874   -0.083884
      3         17           0       -0.299783   -1.659091   -0.083803
      4         17           0        1.587876    0.570048   -0.083860
      5          1           0        0.000089    0.000442    1.541601
 ---------------------------------------------------------------------

 SCF Done:  E(RM062X) =  -1419.16726064     A.U. after    1 cycles

 The electronic state is 1-A.
 Alpha  occ. eigenvalues -- -102.69820-102.69816-102.69800 -10.74144  -9.84568
 Alpha  occ. eigenvalues --   -9.84567  -9.84553  -7.57009  -7.57008  -7.56994
 Alpha  occ. eigenvalues --   -7.56255  -7.56254  -7.56246  -7.56245  -7.56239
 Alpha  occ. eigenvalues --   -7.56231  -1.06088  -0.94811  -0.94799  -0.74710
 Alpha  occ. eigenvalues --   -0.59123  -0.55006  -0.55000  -0.42799  -0.42788
 Alpha  occ. eigenvalues --   -0.39860  -0.39852  -0.39470  -0.38081
 Alpha virt. eigenvalues --   -0.00913   0.02159   0.02851   0.02856   0.06009
 Alpha virt. eigenvalues --    0.06609   0.06613   0.09226   0.09227   0.10240
 Alpha virt. eigenvalues --    0.11237   0.11241   0.13802   0.13809   0.13815

 Mulliken charges:
               1
     1  C   -0.581294
     2  Cl   0.083169
     3  Cl   0.083036
     4  Cl   0.082565
     5  H    0.332524
 Sum of Mulliken charges =   0.00000

 Dipole moment (field-independent basis, Debye):
    X=             -0.0025    Y=              0.0001    Z=              1.2767  Tot=              1.2767
 Quadrupole moment (field-independent basis, Debye-Ang):
   XX=            -44.8299   YY=            -44.8390   ZZ=            -42.3793
   XY=             -0.0018   XZ=              0.0024   YZ=              0.0005

  Exact polarizability:  52.818  -0.022  52.783   0.033   0.005  34.859
 Approx polarizability:  59.641   0.003  59.579  -0.001   0.002  41.320

                      1                      2                      3
                      A                      A                      A
 Frequencies --    261.8757               263.8639               371.0344
 Red. masses --     25.2643                25.6587                19.4403
 Frc consts  --      1.0208                 1.0526                 1.5768
 IR Inten    --      0.3010                 0.1868                 0.5455

                      4                      5                      6
                      A                      A                      A
 Frequencies --    682.0578               793.0388               796.9104
 Red. masses --      8.3138                 9.1289                 9.0709
 Frc consts  --      2.2787                 3.3827                 3.3941
 IR Inten    --      6.1397               167.2238               166.3954

                      7                      8                      9
                      A                      A                      A
 Frequencies --   1273.6480              1277.8114              3227.4287
 Red. masses --      1.0817                 1.0803                 1.0886
 Frc consts  --      1.0339                 1.0393                 6.6808
 IR Inten    --     28.3076                28.0745                 0.9194

 - Thermochemistry -
 -------------------
 Temperature   298.150 Kelvin.  Pressure   1.00000 Atm.
 Atom     1 has atomic number  6 and mass  12.00000

 Molecular mass:   117.91438 amu.
 Principal axes and moments of inertia in atomic units:
                           1         2         3
     Eigenvalues --   552.36345 553.253531065.62906
           X            1.00000   0.00000   0.00000
           Y            0.00000   1.00000   0.00001
           Z            0.00000  -0.00001   1.00000
 This molecule is an asymmetric top.
 Rotational symmetry number  1.
 Warning -- assumption of classical behavior for rotation
           may cause significant error
 Rotational temperatures (Kelvin)      0.15681     0.15655     0.08128
 Rotational constants (GHZ):           3.26731     3.26205     1.69359
 Zero-point vibrational energy      53518.9 (Joules/Mol)
                                   12.79134 (Kcal/Mol)
 Warning -- explicit consideration of   3 degrees of freedom as
           vibrations may cause significant error
 Vibrational temperatures:    376.78   379.64   533.84   981.33  1141.00
          (Kelvin)           1146.57  1832.49  1838.48  4643.54

 Zero-point correction=                           0.020384 (Hartree/Particle)
 Thermal correction to Energy=                    0.024797
 Thermal correction to Enthalpy=                  0.025742
 Thermal correction to Gibbs Free Energy=        -0.008782
 Sum of electronic and zero-point Energies=          -1419.146876
 Sum of electronic and thermal Energies=             -1419.142463
 Sum of electronic and thermal Enthalpies=           -1419.141519
 Sum of electronic and thermal Free Energies=        -1419.176042

                     E (Thermal)             CV                S
                      KCal/Mol        Cal/Mol-Kelvin    Cal/Mol-Kelvin
 Total                   15.561             13.478             72.660
 Electronic               0.000              0.000              0.000
 Translational            0.889              2.981             40.209
 Rotational               0.889              2.981             27.279
 Vibrational             13.783              7.516              5.172
 Vibration     1          0.669              1.743              1.649
 Vibration     2          0.670              1.739              1.636
 Vibration     3          0.743              1.532              1.076

 Normal termination of Gaussian 09 at Thu Mar 13 14:55:16 2025.
