 Gaussian 09, Revision D.01,
 Gaussian 09:  ES64L-G09RevD.01 24-Apr-2013

 ---------------------------------
 #m062X/6-31+G(d) OPT Freq=noraman
 ---------------------------------

 ----------------------
 2,2,2-trifluoroethanol
 ----------------------
 Symbolic Z-matrix:
 Charge =  0 Multiplicity = 1

 SCF Done:  E(RM062X) =  -452.618145753     A.U. after   11 cycles
 SCF Done:  E(RM062X) =  -452.620350607     A.U. after   10 cycles
 SCF Done:  E(RM062X) =  -452.620523666     A.U. after    9 cycles
 SCF Done:  E(RM062X) =  -452.620534870     A.U. after    8 cycles
 Optimization completed.
    -- Stationary point found.
 Normal termination of Gaussian 09 at Wed Mar 19 12:23:58 2025.

 ---------------------------------------------------------------------
 #N Geom=AllCheck Guess=TCheck SCRF=Check GenChk RM062X/6-31+G(d) Freq
 ---------------------------------------------------------------------

 Structure from the checkpoint file:  "/srv/scratch/z5358697/gauss/Gau-3515702.chk"
 ----------------------
 2,2,2-trifluoroethanol
 ----------------------
 Charge =  0 Multiplicity = 1

                         Standard orientation:
 ---------------------------------------------------------------------
 Center     Atomic      Atomic             Coordinates (Angstroms)
 Number     Number       Type             X           Y           Z
 ---------------------------------------------------------------------
      1          6           0        0.903768    0.749577    0.002978
      2          6           0       -0.416548    0.008227    0.000253
      3          9           0       -0.556629   -0.772116    1.078209
      4          9           0       -0.556248   -0.763469   -1.083676
      5          9           0       -1.430531    0.894149    0.002835
      6          8           0        1.918230   -0.219051   -0.000812
      7          1           0        0.920067    1.385541   -0.890718
      8          1           0        0.919864    1.378583    0.901522
      9          1           0        2.781583    0.214390    0.000002
 ---------------------------------------------------------------------

 SCF Done:  E(RM062X) =  -452.620534870     A.U. after    1 cycles

 The electronic state is 1-A.
 Alpha  occ. eigenvalues --  -25.30494 -25.30115 -25.30111 -19.68014 -10.81106
 Alpha  occ. eigenvalues --  -10.63805  -1.46990  -1.37735  -1.37570  -1.18587
 Alpha  occ. eigenvalues --   -0.88874  -0.77634  -0.69988  -0.69607  -0.65354
 Alpha  occ. eigenvalues --   -0.62416  -0.58119  -0.57086  -0.55788  -0.52933
 Alpha  occ. eigenvalues --   -0.52072  -0.51187  -0.49681  -0.44096  -0.38778
 Alpha virt. eigenvalues --   -0.00108   0.03370   0.04673   0.04707   0.07538
 Alpha virt. eigenvalues --    0.07838   0.08249   0.13571   0.16672   0.17055
 Alpha virt. eigenvalues --    0.18340   0.20406   0.22511   0.23732   0.26323

 Mulliken charges:
               1
     1  C   -0.282162
     2  C    0.939172
     3  F   -0.299425
     4  F   -0.299369
     5  F   -0.315004
     6  O   -0.685133
     7  H    0.220192
     8  H    0.220180
     9  H    0.501549
 Sum of Mulliken charges =   0.00000

 Dipole moment (field-independent basis, Debye):
    X=              2.5229    Y=              2.7021    Z=              0.0093  Tot=              3.6969
 Quadrupole moment (field-independent basis, Debye-Ang):
   XX=            -28.4616   YY=            -33.2226   ZZ=            -34.1699
   XY=              4.5134   XZ=              0.0113   YZ=              0.0036

  Exact polarizability:  32.512  -0.978  30.319  -0.007  -0.002  29.091
 Approx polarizability:  33.219  -1.768  33.881  -0.009  -0.002  32.946

                      1                      2                      3
                      A                      A                      A
 Frequencies --    128.4589               234.4808               240.2398
 Red. masses --      4.8654                 8.6111                 1.0738
 Frc consts  --      0.0473                 0.2789                 0.0365
 IR Inten    --     14.5740                 0.9561               148.9928

                      4                      5                      6
                      A                      A                      A
 Frequencies --    365.2202               424.1896               537.5166
 Red. masses --      3.3855                11.3313                 8.0117
 Frc consts  --      0.2661                 1.2013                 1.3638
 IR Inten    --      0.0302                 0.3516                 4.1522

                      7                      8                      9
                      A                      A                      A
 Frequencies --    555.2781               658.9279               855.4817
 Red. masses --      9.6091                 7.2229                 6.3556
 Frc consts  --      1.7456                 1.8477                 2.7405
 IR Inten    --      8.6864                32.3871                 8.2287

                     10                     11                     12
                      A                      A                      A
 Frequencies --   1010.6312              1165.8650              1198.0705
 Red. masses --      1.8682                 3.3713                 2.3174
 Frc consts  --      1.1242                 2.6999                 1.9598
 IR Inten    --     57.9590                22.5591               410.4239

                     13                     14                     15
                      A                      A                      A
 Frequencies --   1222.7939              1276.6584              1339.0597
 Red. masses --      1.6367                 2.4996                 2.9115
 Frc consts  --      1.4418                 2.4003                 3.0759
 IR Inten    --     82.9507                46.7406               138.8934

                     16                     17                     18
                      A                      A                      A
 Frequencies --   1352.6820              1519.4281              1529.4101
 Red. masses --      2.0897                 2.0217                 1.0938
 Frc consts  --      2.2528                 2.7500                 1.5074
 IR Inten    --    158.8664                26.2784                 8.1143

                     19                     20                     21
                      A                      A                      A
 Frequencies --   3081.5905              3132.1623              3843.6468
 Red. masses --      1.0561                 1.1092                 1.0673
 Frc consts  --      5.9089                 6.4115                 9.2900
 IR Inten    --     27.3577                19.3549                69.2514

 - Thermochemistry -
 -------------------
 Temperature   298.150 Kelvin.  Pressure   1.00000 Atm.
 Atom     1 has atomic number  6 and mass  12.00000

 Molecular mass:   100.01360 amu.
 Principal axes and moments of inertia in atomic units:
                           1         2         3
     Eigenvalues --   338.20560 630.53938 640.09249
           X            0.99892   0.04638   0.00035
           Y           -0.04638   0.99891   0.00457
           Z           -0.00014  -0.00459   0.99999
 This molecule is an asymmetric top.
 Rotational symmetry number  1.
 Rotational temperatures (Kelvin)      0.25610     0.13736     0.13531
 Rotational constants (GHZ):           5.33623     2.86222     2.81950
 Zero-point vibrational energy     153551.4 (Joules/Mol)
                                   36.69967 (Kcal/Mol)
 Warning -- explicit consideration of   7 degrees of freedom as
           vibrations may cause significant error
 Vibrational temperatures:    184.82   337.37   345.65   525.47   610.31
          (Kelvin)            773.37   798.92   948.05  1230.85  1454.07
                             1677.42  1723.75  1759.33  1836.82  1926.61
                             1946.21  2186.12  2200.48  4433.72  4506.48
                             5530.14

 Zero-point correction=                           0.058485 (Hartree/Particle)
 Thermal correction to Energy=                    0.064344
 Thermal correction to Enthalpy=                  0.065288
 Thermal correction to Gibbs Free Energy=         0.028861
 Sum of electronic and zero-point Energies=           -452.562050
 Sum of electronic and thermal Energies=              -452.556191
 Sum of electronic and thermal Enthalpies=            -452.555247
 Sum of electronic and thermal Free Energies=         -452.591674

                     E (Thermal)             CV                S
                      KCal/Mol        Cal/Mol-Kelvin    Cal/Mol-Kelvin
 Total                   40.376             19.726             76.668
 Electronic               0.000              0.000              0.000
 Translational            0.889              2.981             39.718
 Rotational               0.889              2.981             26.415
 Vibrational             38.599             13.764             10.534
 Vibration     1          0.611              1.925              2.969
 Vibration     2          0.654              1.788              1.844
 Vibration     3          0.657              1.779              1.801
 Vibration     4          0.738              1.544              1.100
 Vibration     5          0.786              1.418              0.878
 Vibration     6          0.893              1.167              0.571
 Vibration     7          0.911              1.128              0.533

 Optimization completed.
    -- Stationary point found.
 Normal termination of Gaussian 09 at Wed Mar 19 12:25:32 2025.
