 Gaussian 09, Revision D.01,
 Gaussian 09:  ES64L-G09RevD.01 24-Apr-2013

 ---------------------------------
 #m062X/6-31+G(d) OPT Freq=noraman
 ---------------------------------

 ----------
 prop-1-ene
 ----------
 Symbolic Z-matrix:
 Charge =  0 Multiplicity = 1

 SCF Done:  E(RM062X) =  -117.837643915     A.U. after   11 cycles
 SCF Done:  E(RM062X) =  -117.838394949     A.U. after   11 cycles
 SCF Done:  E(RM062X) =  -117.838894795     A.U. after   11 cycles
 SCF Done:  E(RM062X) =  -117.839388352     A.U. after   12 cycles
 SCF Done:  E(RM062X) =  -117.839549864     A.U. after   10 cycles
 SCF Done:  E(RM062X) =  -117.839608591     A.U. after    9 cycles
 SCF Done:  E(RM062X) =  -117.839610362     A.U. after    9 cycles
 Optimization completed.
    -- Stationary point found.
 Normal termination of Gaussian 09 at Wed Mar 19 12:26:30 2025.

 ---------------------------------------------------------------------
 #N Geom=AllCheck Guess=TCheck SCRF=Check GenChk RM062X/6-31+G(d) Freq
 ---------------------------------------------------------------------

 Structure from the checkpoint file:  "/srv/scratch/z5358697/gauss/Gau-1295056.chk"
 ----------
 prop-1-ene
 ----------
 Charge =  0 Multiplicity = 1

                         Standard orientation:
 ---------------------------------------------------------------------
 Center     Atomic      Atomic             Coordinates (Angstroms)
 Number     Number       Type             X           Y           Z
 ---------------------------------------------------------------------
      1          6           0       -1.231749   -0.163203   -0.000038
      2          6           0        0.133523    0.459800    0.000261
      3          6           0        1.277905   -0.222559    0.000093
      4          1           0       -1.805267    0.146459    0.881026
      5          1           0       -1.166098   -1.255369   -0.000673
      6          1           0       -1.804987    0.147160   -0.881134
      7          1           0        0.168922    1.549489   -0.000315
      8          1           0        2.241252    0.278686   -0.000888
      9          1           0        1.288109   -1.310659    0.000084
 ---------------------------------------------------------------------

 SCF Done:  E(RM062X) =  -117.839610362     A.U. after    1 cycles

 The electronic state is 1-A.
 Alpha  occ. eigenvalues --  -10.55515 -10.54308 -10.54042  -0.88648  -0.77652
 Alpha  occ. eigenvalues --   -0.63452  -0.53828  -0.48648  -0.48022  -0.43400
 Alpha  occ. eigenvalues --   -0.40713  -0.31402
 Alpha virt. eigenvalues --    0.03328   0.03793   0.04331   0.04934   0.07482
 Alpha virt. eigenvalues --    0.07505   0.08505   0.10691   0.11633   0.12863
 Alpha virt. eigenvalues --    0.13248   0.15299   0.17772   0.24440   0.25666

 Mulliken charges:
               1
     1  C   -0.887396
     2  C    0.127376
     3  C   -0.461316
     4  H    0.217523
     5  H    0.208224
     6  H    0.217507
     7  H    0.195192
     8  H    0.194457
     9  H    0.188434
 Sum of Mulliken charges =   0.00000

 Dipole moment (field-independent basis, Debye):
    X=             -0.3862    Y=              0.0737    Z=             -0.0015  Tot=              0.3932
 Quadrupole moment (field-independent basis, Debye-Ang):
   XX=            -19.3398   YY=            -19.0831   ZZ=            -22.2788
   XY=             -0.1743   XZ=             -0.0023   YZ=             -0.0008

  Exact polarizability:  46.306  -4.955  34.739  -0.001  -0.001  27.617
 Approx polarizability:  49.726  -8.245  39.067  -0.003  -0.001  30.370

                      1                      2                      3
                      A                      A                      A
 Frequencies --    205.8284               428.5246               585.9749
 Red. masses --      1.1590                 1.9646                 1.1900
 Frc consts  --      0.0289                 0.2126                 0.2407
 IR Inten    --      0.5714                 0.6864                15.4812

                      4                      5                      6
                      A                      A                      A
 Frequencies --    945.5235               951.7508               955.8772
 Red. masses --      1.7820                 1.3453                 1.3275
 Frc consts  --      0.9386                 0.7180                 0.7146
 IR Inten    --      0.2385                 5.3187                56.3791

                      7                      8                      9
                      A                      A                      A
 Frequencies --   1028.5647              1081.9923              1201.7922
 Red. masses --      1.0521                 1.5482                 1.7949
 Frc consts  --      0.6558                 1.0679                 1.5274
 IR Inten    --     15.2481                 3.0352                 0.4031

                     10                     11                     12
                      A                      A                      A
 Frequencies --   1331.2735              1426.8324              1469.1919
 Red. masses --      1.2488                 1.2062                 1.2378
 Frc consts  --      1.3040                 1.4468                 1.5741
 IR Inten    --      0.1008                 2.1551                 1.9110

                     13                     14                     15
                      A                      A                      A
 Frequencies --   1505.3087              1520.5995              1750.9416
 Red. masses --      1.0436                 1.0523                 4.6602
 Frc consts  --      1.3933                 1.4336                 8.4177
 IR Inten    --      8.7993                15.8598                14.0281

                     16                     17                     18
                      A                      A                      A
 Frequencies --   3070.1959              3132.2646              3148.8489
 Red. masses --      1.0359                 1.1005                 1.0996
 Frc consts  --      5.7529                 6.3612                 6.4238
 IR Inten    --     20.5151                15.2209                 6.0996

                     19                     20                     21
                      A                      A                      A
 Frequencies --   3164.3854              3175.1673              3252.4041
 Red. masses --      1.0616                 1.0930                 1.1164
 Frc consts  --      6.2632                 6.4921                 6.9578
 IR Inten    --     17.9544                14.0406                15.4383

 - Thermochemistry -
 -------------------
 Temperature   298.150 Kelvin.  Pressure   1.00000 Atm.
 Atom     1 has atomic number  6 and mass  12.00000

 Molecular mass:    42.04695 amu.
 Principal axes and moments of inertia in atomic units:
                           1         2         3
     Eigenvalues --    38.82337 193.75446 221.40214
           X            0.99999   0.00328  -0.00002
           Y           -0.00328   0.99999  -0.00008
           Z            0.00002   0.00008   1.00000
 This molecule is an asymmetric top.
 Rotational symmetry number  1.
 Rotational temperatures (Kelvin)      2.23097     0.44703     0.39121
 Rotational constants (GHZ):          46.48595     9.31458     8.15142
 Zero-point vibrational energy     211339.7 (Joules/Mol)
                                   50.51141 (Kcal/Mol)
 Warning -- explicit consideration of   3 degrees of freedom as
           vibrations may cause significant error
 Vibrational temperatures:    296.14   616.55   843.09  1360.40  1369.36
          (Kelvin)           1375.29  1479.87  1556.74  1729.11  1915.40
                             2052.89  2113.84  2165.80  2187.80  2519.21
                             4417.32  4506.62  4530.49  4552.84  4568.35
                             4679.48

 Zero-point correction=                           0.080495 (Hartree/Particle)
 Thermal correction to Energy=                    0.084573
 Thermal correction to Enthalpy=                  0.085517
 Thermal correction to Gibbs Free Energy=         0.055487
 Sum of electronic and zero-point Energies=           -117.759115
 Sum of electronic and thermal Energies=              -117.755038
 Sum of electronic and thermal Enthalpies=            -117.754093
 Sum of electronic and thermal Free Energies=         -117.784124

                     E (Thermal)             CV                S
                      KCal/Mol        Cal/Mol-Kelvin    Cal/Mol-Kelvin
 Total                   53.070             12.899             63.204
 Electronic               0.000              0.000              0.000
 Translational            0.889              2.981             37.136
 Rotational               0.889              2.981             22.037
 Vibrational             51.293              6.937              4.031
 Vibration     1          0.640              1.832              2.080
 Vibration     2          0.790              1.408              0.863
 Vibration     3          0.943              1.062              0.474

 Optimization completed.
    -- Stationary point found.
 Normal termination of Gaussian 09 at Wed Mar 19 12:27:03 2025.
