 Gaussian 09, Revision D.01,
 Gaussian 09:  ES64L-G09RevD.01 24-Apr-2013

 ---------------------------------
 #m062X/6-31+G(d) OPT Freq=noraman
 ---------------------------------

 -------
 benzene
 -------
 Symbolic Z-matrix:
 Charge =  0 Multiplicity = 1

 SCF Done:  E(RM062X) =  -232.144390224     A.U. after   10 cycles

 The electronic state is 1-A.
 Alpha  occ. eigenvalues --  -10.55710 -10.55674 -10.55673 -10.55596 -10.55595
 Alpha  occ. eigenvalues --  -10.55559  -0.96032  -0.84411  -0.84407  -0.68716
 Alpha  occ. eigenvalues --   -0.68709  -0.60151  -0.53613  -0.51225  -0.48999
 Alpha  occ. eigenvalues --   -0.48997  -0.43779  -0.40439  -0.40434  -0.30740
 Alpha  occ. eigenvalues --   -0.30737
 Alpha virt. eigenvalues --    0.01992   0.01995   0.02895   0.03719   0.03720
 Alpha virt. eigenvalues --    0.05204   0.05206   0.07940   0.08304   0.10164
 Alpha virt. eigenvalues --    0.10343   0.10353   0.10722   0.14930   0.14937

 Mulliken charges:
               1
     1  C   -0.205226
     2  C   -0.205262
     3  C   -0.205299
     4  C   -0.204613
     5  C   -0.205912
     6  C   -0.204641
     7  H    0.205145
     8  H    0.205189
     9  H    0.205136
    10  H    0.205167
    11  H    0.205181
    12  H    0.205134
 Sum of Mulliken charges =   0.00000

 Dipole moment (field-independent basis, Debye):
    X=             -0.0002    Y=             -0.0001    Z=              0.0002  Tot=              0.0002
 Quadrupole moment (field-independent basis, Debye-Ang):
   XX=            -31.8510   YY=            -31.8567   ZZ=            -40.5257
   XY=             -0.0013   XZ=              0.0001   YZ=              0.0003

 Optimization completed.
    -- Stationary point found.
 Normal termination of Gaussian 09 at Sun Mar 16 20:10:56 2025.

 ---------------------------------------------------------------------
 #N Geom=AllCheck Guess=TCheck SCRF=Check GenChk RM062X/6-31+G(d) Freq
 ---------------------------------------------------------------------

 Structure from the checkpoint file:  "/srv/scratch/z5358697/gauss/Gau-2398966.chk"
 -------
 benzene
 -------
 Charge =  0 Multiplicity = 1

                         Standard orientation:
 ---------------------------------------------------------------------
 Center     Atomic      Atomic             Coordinates (Angstroms)
 Number     Number       Type             X           Y           Z
 ---------------------------------------------------------------------
      1          6           0       -0.893640   -1.070960   -0.000025
      2          6           0        0.480725   -1.309455    0.000033
      3          6           0        1.374378   -0.238396   -0.000015
      4          6           0        0.893639    1.071053   -0.000030
      5          6           0       -0.480753    1.309443    0.000002
      6          6           0       -1.374341    0.238326    0.000002
      7          1           0       -1.589862   -1.904426    0.000843
      8          1           0        0.855438   -2.328860   -0.000602
      9          1           0        2.444388   -0.424133    0.000096
     10          1           0        1.589813    1.905004    0.000316
     11          1           0       -0.855293    2.328675    0.000046
     12          1           0       -2.444532    0.423675   -0.000505
 ---------------------------------------------------------------------

 SCF Done:  E(RM062X) =  -232.144390224     A.U. after    1 cycles
 Error termination via Lnk1e in /apps/z_install_tree/linux-rocky8-ivybridge/gcc-12.2.0/gaussian-09-D.01-wczn3gur5lpur3omlkzwa2l5ecyxp5ef/g09/l1002.exe at Sun Mar 16 20:12:04 2025.
