 Gaussian 09, Revision D.01,
 Gaussian 09:  ES64L-G09RevD.01 24-Apr-2013

 ---------------------------------
 #m062X/6-31+G(d) OPT Freq=noraman
 ---------------------------------

 ---------------
 2-chloroaniline
 ---------------
 Symbolic Z-matrix:
 Charge =  0 Multiplicity = 1

 SCF Done:  E(RM062X) =  -747.047981792     A.U. after   15 cycles
 SCF Done:  E(RM062X) =  -747.050539315     A.U. after   12 cycles
 SCF Done:  E(RM062X) =  -747.050936706     A.U. after   13 cycles
 SCF Done:  E(RM062X) =  -747.051059994     A.U. after   12 cycles
 SCF Done:  E(RM062X) =  -746.994566943     A.U. after   16 cycles
 SCF Done:  E(RM062X) =  -747.051062228     A.U. after    8 cycles
 SCF Done:  E(RM062X) =  -747.050698767     A.U. after   15 cycles
 SCF Done:  E(RM062X) =  -747.051737198     A.U. after   12 cycles
 SCF Done:  E(RM062X) =  -747.051845080     A.U. after   13 cycles
 SCF Done:  E(RM062X) =  -747.051842276     A.U. after   13 cycles
 SCF Done:  E(RM062X) =  -747.051776449     A.U. after   12 cycles
 SCF Done:  E(RM062X) =  -747.051924636     A.U. after   12 cycles
 SCF Done:  E(RM062X) =  -747.051926849     A.U. after   11 cycles
 SCF Done:  E(RM062X) =  -747.051927251     A.U. after   10 cycles
 Optimization completed.
    -- Stationary point found.
 Normal termination of Gaussian 09 at Fri Mar 21 13:12:54 2025.

 ---------------------------------------------------------------------
 #N Geom=AllCheck Guess=TCheck SCRF=Check GenChk RM062X/6-31+G(d) Freq
 ---------------------------------------------------------------------

 Structure from the checkpoint file:  "/srv/scratch/z5358697/gauss/Gau-4183159.chk"
 ---------------
 2-chloroaniline
 ---------------
 Charge =  0 Multiplicity = 1

                         Standard orientation:
 ---------------------------------------------------------------------
 Center     Atomic      Atomic             Coordinates (Angstroms)
 Number     Number       Type             X           Y           Z
 ---------------------------------------------------------------------
      1          6           0       -2.354937    0.009509    0.002395
      2          6           0       -1.839423   -1.286639    0.006758
      3          6           0       -0.459721   -1.467601    0.004438
      4          6           0        0.385452   -0.364673   -0.003230
      5          6           0       -0.109854    0.947501   -0.005708
      6          6           0       -1.504337    1.107027   -0.004575
      7          7           0        0.734975    2.046193   -0.072483
      8         17           0        2.117085   -0.616002   -0.001121
      9          1           0       -3.428994    0.169680    0.003456
     10          1           0       -2.499237   -2.147667    0.012225
     11          1           0       -0.025499   -2.462531    0.009510
     12          1           0       -1.911585    2.115147   -0.017390
     13          1           0        1.683711    1.891213    0.244617
     14          1           0        0.343250    2.912098    0.273548
 ---------------------------------------------------------------------

 SCF Done:  E(RM062X) =  -747.051927251     A.U. after    1 cycles

 The electronic state is 1-A.
 Alpha  occ. eigenvalues -- -102.67509 -14.78084 -10.61273 -10.61116 -10.56711
 Alpha  occ. eigenvalues --  -10.56273 -10.56087 -10.55549  -9.82151  -7.54547
 Alpha  occ. eigenvalues --   -7.53902  -7.53887  -1.04939  -0.97729  -0.93775
 Alpha  occ. eigenvalues --   -0.84311  -0.82317  -0.70919  -0.68679  -0.60865
 Alpha  occ. eigenvalues --   -0.59902  -0.55792  -0.51492  -0.51222  -0.49659
 Alpha  occ. eigenvalues --   -0.48469  -0.43896  -0.41823  -0.40680  -0.38987
 Alpha  occ. eigenvalues --   -0.38235  -0.30549  -0.26729
 Alpha virt. eigenvalues --    0.01014   0.01421   0.02277   0.02898   0.03130
 Alpha virt. eigenvalues --    0.04488   0.05133   0.06652   0.07172   0.07369
 Alpha virt. eigenvalues --    0.08262   0.09428   0.09702   0.10206   0.13034

 Mulliken charges:
               1
     1  C   -0.513010
     2  C   -0.070880
     3  C   -0.831830
     4  C    1.137104
     5  C   -0.898537
     6  C    0.257986
     7  N   -0.778432
     8  Cl   0.072991
     9  H    0.208441
    10  H    0.208980
    11  H    0.225967
    12  H    0.197885
    13  H    0.393309
    14  H    0.390026
 Sum of Mulliken charges =   0.00000

 Dipole moment (field-independent basis, Debye):
    X=             -1.0571    Y=              1.3138    Z=              0.9953  Tot=              1.9581
 Quadrupole moment (field-independent basis, Debye-Ang):
   XX=            -51.1519   YY=            -45.6587   ZZ=            -59.1723
   XY=              1.4641   XZ=              1.2210   YZ=              2.8300

  Exact polarizability: 112.457   3.352  98.170  -0.319  -0.245  50.274
 Approx polarizability: 136.910   3.908 125.432  -0.623  -0.618  63.169

                      1                      2                      3
                      A                      A                      A
 Frequencies --    154.0878               256.6405               265.9161
 Red. masses --      4.4838                 4.2117                 6.4290
 Frc consts  --      0.0627                 0.1634                 0.2678
 IR Inten    --      0.5883                 7.8159                 1.4050

                      4                      5                      6
                      A                      A                      A
 Frequencies --    343.5115               380.4916               442.9939
 Red. masses --      1.0529                 6.3722                 3.0345
 Frc consts  --      0.0732                 0.5435                 0.3509
 IR Inten    --     21.0502                 1.9833                13.1509

                      7                      8                      9
                      A                      A                      A
 Frequencies --    476.7929               544.7048               566.6997
 Red. masses --      4.1099                 2.3817                 6.6085
 Frc consts  --      0.5505                 0.4164                 1.2504
 IR Inten    --      1.4967                89.7497                10.8724

                     10                     11                     12
                      A                      A                      A
 Frequencies --    592.0064               697.2252               728.2457
 Red. masses --      1.6293                 6.4126                 3.5295
 Frc consts  --      0.3364                 1.8367                 1.1029
 IR Inten    --    207.3163                19.6892                 1.5192

                     13                     14                     15
                      A                      A                      A
 Frequencies --    768.1886               853.9793               864.5092
 Red. masses --      1.3033                 3.5708                 1.6159
 Frc consts  --      0.4532                 1.5343                 0.7115
 IR Inten    --     89.5936                 2.6038                 3.0084

                     16                     17                     18
                      A                      A                      A
 Frequencies --    953.7552              1000.2710              1054.2566
 Red. masses --      1.3586                 1.2881                 3.4744
 Frc consts  --      0.7281                 0.7594                 2.2752
 IR Inten    --      1.4917                 0.0052                23.3384

                     19                     20                     21
                      A                      A                      A
 Frequencies --   1086.8436              1119.8275              1177.2566
 Red. masses --      1.9180                 1.9445                 1.2331
 Frc consts  --      1.3349                 1.4367                 1.0069
 IR Inten    --      4.4462                41.7836                 4.9208

                     22                     23                     24
                      A                      A                      A
 Frequencies --   1188.7506              1303.3344              1350.5115
 Red. masses --      1.1109                 1.8227                 1.9688
 Frc consts  --      0.9249                 1.8242                 2.1156
 IR Inten    --      5.3123                 4.7557                36.5578

                     25                     26                     27
                      A                      A                      A
 Frequencies --   1364.3646              1506.5754              1553.9147
 Red. masses --      4.9195                 2.5998                 2.8691
 Frc consts  --      5.3955                 3.4767                 4.0818
 IR Inten    --     14.7230                16.8865                95.5429

                     28                     29                     30
                      A                      A                      A
 Frequencies --   1667.7814              1674.4374              1705.0474
 Red. masses --      6.2722                 1.7054                 2.3886
 Frc consts  --     10.2789                 2.8171                 4.0914
 IR Inten    --      2.1711                15.3907               165.1602

                     31                     32                     33
                      A                      A                      A
 Frequencies --   3195.8509              3218.6121              3223.2195
 Red. masses --      1.0889                 1.0905                 1.0930
 Frc consts  --      6.5523                 6.6559                 6.6902
 IR Inten    --      7.8858                 4.0609                 5.6458

                     34                     35                     36
                      A                      A                      A
 Frequencies --   3245.3356              3588.2199              3695.0945
 Red. masses --      1.0968                 1.0489                 1.0988
 Frc consts  --      6.8059                 7.9567                 8.8393
 IR Inten    --      7.2570                33.3669                30.8815

 - Thermochemistry -
 -------------------
 Temperature   298.150 Kelvin.  Pressure   1.00000 Atm.
 Atom     1 has atomic number  6 and mass  12.00000

 Molecular mass:   127.01888 amu.
 Principal axes and moments of inertia in atomic units:
                           1         2         3
     Eigenvalues --   614.359831170.669201783.59684
           X            0.99925   0.03865   0.00154
           Y           -0.03866   0.99923   0.00690
           Z           -0.00127  -0.00695   0.99998
 This molecule is an asymmetric top.
 Rotational symmetry number  1.
 Warning -- assumption of classical behavior for rotation
           may cause significant error
 Rotational temperatures (Kelvin)      0.14098     0.07399     0.04856
 Rotational constants (GHZ):           2.93760     1.54163     1.01185
 Zero-point vibrational energy     285962.8 (Joules/Mol)
                                   68.34676 (Kcal/Mol)
 Warning -- explicit consideration of  10 degrees of freedom as
           vibrations may cause significant error
 Vibrational temperatures:    221.70   369.25   382.59   494.24   547.44
          (Kelvin)            637.37   686.00   783.71   815.35   851.76
                             1003.15  1047.78  1105.25  1228.68  1243.83
                             1372.24  1439.17  1516.84  1563.72  1611.18
                             1693.81  1710.34  1875.21  1943.08  1963.01
                             2167.62  2235.73  2399.56  2409.14  2453.18
                             4598.11  4630.86  4637.49  4669.31  5162.64
                             5316.41

 Zero-point correction=                           0.108917 (Hartree/Particle)
 Thermal correction to Energy=                    0.115744
 Thermal correction to Enthalpy=                  0.116688
 Thermal correction to Gibbs Free Energy=         0.077705
 Sum of electronic and zero-point Energies=           -746.943010
 Sum of electronic and thermal Energies=              -746.936184
 Sum of electronic and thermal Enthalpies=            -746.935239
 Sum of electronic and thermal Free Energies=         -746.974222

                     E (Thermal)             CV                S
                      KCal/Mol        Cal/Mol-Kelvin    Cal/Mol-Kelvin
 Total                   72.630             26.620             82.046
 Electronic               0.000              0.000              0.000
 Translational            0.889              2.981             40.431
 Rotational               0.889              2.981             28.641
 Vibrational             70.853             20.658             12.974
 Vibration     1          0.620              1.898              2.621
 Vibration     2          0.666              1.752              1.685
 Vibration     3          0.672              1.736              1.623
 Vibration     4          0.722              1.588              1.196
 Vibration     5          0.750              1.512              1.037
 Vibration     6          0.803              1.376              0.817
 Vibration     7          0.833              1.302              0.719
 Vibration     8          0.900              1.151              0.555
 Vibration     9          0.923              1.103              0.511
 Vibration    10          0.949              1.049              0.464

 Normal termination of Gaussian 09 at Fri Mar 21 13:18:21 2025.
