 Gaussian 09, Revision D.01,
 Gaussian 09:  ES64L-G09RevD.01 24-Apr-2013

 ---------------------------------
 #m062X/6-31+G(d) OPT Freq=noraman
 ---------------------------------

 ---------------
 tetrahydropyran
 ---------------
 Symbolic Z-matrix:
 Charge =  0 Multiplicity = 1

 SCF Done:  E(RM062X) =  -271.645293813     A.U. after   12 cycles
 SCF Done:  E(RM062X) =  -271.646240630     A.U. after   10 cycles
 SCF Done:  E(RM062X) =  -271.646316441     A.U. after    9 cycles
 SCF Done:  E(RM062X) =  -271.646321630     A.U. after    8 cycles
 Optimization completed.
    -- Stationary point found.
 Normal termination of Gaussian 09 at Tue Mar 18 19:41:58 2025.

 ---------------------------------------------------------------------
 #N Geom=AllCheck Guess=TCheck SCRF=Check GenChk RM062X/6-31+G(d) Freq
 ---------------------------------------------------------------------

 Structure from the checkpoint file:  "/srv/scratch/z5358697/gauss/Gau-3230042.chk"
 ---------------
 tetrahydropyran
 ---------------
 Charge =  0 Multiplicity = 1

                         Standard orientation:
 ---------------------------------------------------------------------
 Center     Atomic      Atomic             Coordinates (Angstroms)
 Number     Number       Type             X           Y           Z
 ---------------------------------------------------------------------
      1          6           0        0.000150    1.442448    0.239591
      2          6           0        1.251743    0.694019   -0.226526
      3          6           0        1.173685   -0.768381    0.201140
      4          8           0       -0.000128   -1.392309   -0.285457
      5          6           0       -1.173841   -0.768176    0.201103
      6          6           0       -1.251609    0.694284   -0.226488
      7          1           0        0.000251    2.472678   -0.132755
      8          1           0        0.000179    1.498563    1.337914
      9          1           0        1.323857    0.737474   -1.320825
     10          1           0        2.160453    1.150399    0.183785
     11          1           0        2.011591   -1.348958   -0.193563
     12          1           0        1.193917   -0.838541    1.303398
     13          1           0       -2.011847   -1.348543   -0.193701
     14          1           0       -1.194164   -0.838396    1.303353
     15          1           0       -1.323775    0.737814   -1.320780
     16          1           0       -2.160207    1.150817    0.183902
 ---------------------------------------------------------------------

 SCF Done:  E(RM062X) =  -271.646321630     A.U. after    1 cycles

 The electronic state is 1-A.
 Alpha  occ. eigenvalues --  -19.64220 -10.58965 -10.58964 -10.54730 -10.54393
 Alpha  occ. eigenvalues --  -10.54390  -1.15784  -0.90112  -0.86134  -0.73178
 Alpha  occ. eigenvalues --   -0.72312  -0.64649  -0.57347  -0.54363  -0.52520
 Alpha  occ. eigenvalues --   -0.51493  -0.48528  -0.45258  -0.45031  -0.41540
 Alpha  occ. eigenvalues --   -0.39948  -0.38171  -0.36439  -0.31768
 Alpha virt. eigenvalues --    0.02546   0.03485   0.03588   0.04056   0.05433
 Alpha virt. eigenvalues --    0.06259   0.07679   0.07857   0.08342   0.10074
 Alpha virt. eigenvalues --    0.10814   0.11576   0.12314   0.12501   0.12624

 Mulliken charges:
               1
     1  C   -0.497841
     2  C   -0.370652
     3  C   -0.239640
     4  O   -0.351466
     5  C   -0.239645
     6  C   -0.370669
     7  H    0.213506
     8  H    0.213069
     9  H    0.221495
    10  H    0.208913
    11  H    0.204957
    12  H    0.186305
    13  H    0.204955
    14  H    0.186307
    15  H    0.221493
    16  H    0.208913
 Sum of Mulliken charges =   0.00000

 Dipole moment (field-independent basis, Debye):
    X=              0.0001    Y=              1.4561    Z=              0.7228  Tot=              1.6256
 Quadrupole moment (field-independent basis, Debye-Ang):
   XX=            -35.7547   YY=            -41.9411   ZZ=            -38.9519
   XY=             -0.0006   XZ=             -0.0001   YZ=             -1.2685

  Exact polarizability:  64.010   0.000  58.530   0.000  -0.435  55.297
 Approx polarizability:  67.812   0.000  63.865   0.000   0.659  67.312

                      1                      2                      3
                      A                      A                      A
 Frequencies --    247.3998               260.8145               414.6418
 Red. masses --      1.7499                 2.1282                 1.7837
 Frc consts  --      0.0631                 0.0853                 0.1807
 IR Inten    --      0.4784                 4.3581                 5.1152

                      4                      5                      6
                      A                      A                      A
 Frequencies --    439.8572               466.4206               572.0309
 Red. masses --      3.4903                 2.7581                 1.5357
 Frc consts  --      0.3979                 0.3535                 0.2961
 IR Inten    --      1.4202                 0.0354                 4.2200

                      7                      8                      9
                      A                      A                      A
 Frequencies --    827.8649               848.7245               866.3171
 Red. masses --      1.5008                 3.1768                 1.4040
 Frc consts  --      0.6060                 1.3483                 0.6208
 IR Inten    --      0.3118                 1.5500                 5.5495

                     10                     11                     12
                      A                      A                      A
 Frequencies --    907.3162               918.4714               985.9197
 Red. masses --      2.2723                 2.5189                 1.2605
 Frc consts  --      1.1021                 1.2520                 0.7219
 IR Inten    --      0.6016                21.4354                 2.4485

                     13                     14                     15
                      A                      A                      A
 Frequencies --   1033.7851              1075.1097              1078.3279
 Red. masses --      2.0502                 2.2840                 1.3967
 Frc consts  --      1.2910                 1.5554                 0.9569
 IR Inten    --     10.0764                12.8235                 8.7071

                     16                     17                     18
                      A                      A                      A
 Frequencies --   1167.8796              1186.7296              1202.5149
 Red. masses --      2.6595                 2.2560                 1.2720
 Frc consts  --      2.1372                 1.8719                 1.0837
 IR Inten    --     54.5762                 4.0174                 0.0001

                     19                     20                     21
                      A                      A                      A
 Frequencies --   1259.5409              1293.9079              1312.4230
 Red. masses --      2.2461                 1.2376                 1.1490
 Frc consts  --      2.0994                 1.2208                 1.1661
 IR Inten    --     65.9118                 5.2824                12.8502

                     22                     23                     24
                      A                      A                      A
 Frequencies --   1344.5637              1362.6166              1395.1573
 Red. masses --      1.2526                 1.3113                 1.5168
 Frc consts  --      1.3343                 1.4345                 1.7395
 IR Inten    --      5.9574                 0.0611                 0.4121

                     25                     26                     27
                      A                      A                      A
 Frequencies --   1396.8603              1409.6229              1439.9047
 Red. masses --      1.5334                 1.3556                 1.4061
 Frc consts  --      1.7628                 1.5871                 1.7177
 IR Inten    --      1.1973                 8.4163                10.9923

                     28                     29                     30
                      A                      A                      A
 Frequencies --   1494.9414              1502.9454              1513.4898
 Red. masses --      1.0981                 1.0839                 1.1108
 Frc consts  --      1.4459                 1.4426                 1.4992
 IR Inten    --      2.5961                 7.6342                 8.3863

                     31                     32                     33
                      A                      A                      A
 Frequencies --   1513.8593              1529.8068              3010.6307
 Red. masses --      1.0873                 1.1049                 1.0715
 Frc consts  --      1.4681                 1.5235                 5.7221
 IR Inten    --      1.4586                 3.2577                22.5362

                     34                     35                     36
                      A                      A                      A
 Frequencies --   3014.8422              3052.1763              3071.6607
 Red. masses --      1.0716                 1.0671                 1.0600
 Frc consts  --      5.7386                 5.8568                 5.8925
 IR Inten    --     99.6750                29.5337                32.7159

                     37                     38                     39
                      A                      A                      A
 Frequencies --   3071.9664              3109.9532              3117.9099
 Red. masses --      1.0614                 1.0960                 1.1042
 Frc consts  --      5.9012                 6.2454                 6.3247
 IR Inten    --     16.5260                34.2616                28.8938

                     40                     41                     42
                      A                      A                      A
 Frequencies --   3122.4617              3144.7159              3146.6206
 Red. masses --      1.1047                 1.0925                 1.0939
 Frc consts  --      6.3459                 6.3655                 6.3812
 IR Inten    --     62.7456                46.3350                27.8165

 - Thermochemistry -
 -------------------
 Temperature   298.150 Kelvin.  Pressure   1.00000 Atm.
 Atom     1 has atomic number  6 and mass  12.00000

 Molecular mass:    86.07317 amu.
 Principal axes and moments of inertia in atomic units:
                           1         2         3
     Eigenvalues --   384.59335 399.72588 691.03905
           X            0.00013   1.00000   0.00000
           Y            0.99986  -0.00013  -0.01695
           Z            0.01695   0.00000   0.99986
 This molecule is an asymmetric top.
 Rotational symmetry number  1.
 Rotational temperatures (Kelvin)      0.22521     0.21668     0.12534
 Rotational constants (GHZ):           4.69260     4.51495     2.61163
 Zero-point vibrational energy     389580.1 (Joules/Mol)
                                   93.11187 (Kcal/Mol)
 Warning -- explicit consideration of   6 degrees of freedom as
           vibrations may cause significant error
 Vibrational temperatures:    355.95   375.25   596.58   632.86   671.07
          (Kelvin)            823.02  1191.11  1221.12  1246.44  1305.42
                             1321.47  1418.52  1487.38  1546.84  1551.47
                             1680.32  1707.44  1730.15  1812.20  1861.64
                             1888.28  1934.52  1960.50  2007.32  2009.77
                             2028.13  2071.70  2150.88  2162.40  2177.57
                             2178.10  2201.05  4331.62  4337.68  4391.40
                             4419.43  4419.87  4474.52  4485.97  4492.52
                             4524.54  4527.28

 Zero-point correction=                           0.148383 (Hartree/Particle)
 Thermal correction to Energy=                    0.153756
 Thermal correction to Enthalpy=                  0.154701
 Thermal correction to Gibbs Free Energy=         0.119867
 Sum of electronic and zero-point Energies=           -271.497938
 Sum of electronic and thermal Energies=              -271.492565
 Sum of electronic and thermal Enthalpies=            -271.491621
 Sum of electronic and thermal Free Energies=         -271.526455

                     E (Thermal)             CV                S
                      KCal/Mol        Cal/Mol-Kelvin    Cal/Mol-Kelvin
 Total                   96.484             20.865             73.314
 Electronic               0.000              0.000              0.000
 Translational            0.889              2.981             39.271
 Rotational               0.889              2.981             26.166
 Vibrational             94.706             14.903              7.877
 Vibration     1          0.661              1.767              1.749
 Vibration     2          0.669              1.744              1.656
 Vibration     3          0.778              1.438              0.910
 Vibration     4          0.800              1.383              0.827
 Vibration     5          0.824              1.325              0.748
 Vibration     6          0.928              1.092              0.500

 Optimization completed.
    -- Stationary point found.
 Normal termination of Gaussian 09 at Tue Mar 18 19:46:02 2025.
