 Gaussian 09, Revision D.01,
 Gaussian 09:  ES64L-G09RevD.01 24-Apr-2013

 -------------------------------
 #m062X/def2SVP OPT Freq=noraman
 -------------------------------

 -----------
 iodobenzene
 -----------
 Symbolic Z-matrix:
 Charge =  0 Multiplicity = 1

 SCF Done:  E(RM062X) =  -528.992599954     A.U. after   15 cycles
 SCF Done:  E(RM062X) =  -528.993102077     A.U. after   13 cycles
 SCF Done:  E(RM062X) =  -528.993136926     A.U. after    9 cycles
 Optimization completed.
    -- Stationary point found.
 Normal termination of Gaussian 09 at Sun Mar 16 20:22:44 2025.

 -------------------------------------------------------------------
 #N Geom=AllCheck Guess=TCheck SCRF=Check GenChk RM062X/def2SVP Freq
 -------------------------------------------------------------------

 Structure from the checkpoint file:  "/srv/scratch/z5358697/gauss/Gau-1923820.chk"
 -----------
 iodobenzene
 -----------
 Charge =  0 Multiplicity = 1

                         Standard orientation:
 ---------------------------------------------------------------------
 Center     Atomic      Atomic             Coordinates (Angstroms)
 Number     Number       Type             X           Y           Z
 ---------------------------------------------------------------------
      1          6           0       -3.337540    0.000004    0.000004
      2          6           0       -2.638078    1.205858   -0.000003
      3          6           0       -1.243490    1.213609    0.000001
      4          6           0       -0.557947   -0.000008    0.000007
      5          6           0       -1.243494   -1.213612   -0.000002
      6          6           0       -2.638091   -1.205854   -0.000002
      7         53           0        1.549596    0.000000    0.000000
      8          1           0       -4.428488    0.000015    0.000006
      9          1           0       -3.177996    2.154328   -0.000014
     10          1           0       -0.696136    2.157179    0.000001
     11          1           0       -0.696150   -2.157195    0.000001
     12          1           0       -3.178002   -2.154318   -0.000007
 ---------------------------------------------------------------------

 SCF Done:  E(RM062X) =  -528.993136926     A.U. after    1 cycles

 The electronic state is 1-A.
 Alpha  occ. eigenvalues --  -10.60972 -10.57476 -10.57474 -10.57192 -10.57182
 Alpha  occ. eigenvalues --  -10.56951  -7.10025  -5.09650  -5.08257  -5.08248
 Alpha  occ. eigenvalues --   -2.06495  -2.05985  -2.05968  -2.04827  -2.04825
 Alpha  occ. eigenvalues --   -0.96866  -0.86119  -0.84814  -0.77437  -0.69654
 Alpha  occ. eigenvalues --   -0.67398  -0.59803  -0.53607  -0.52804  -0.50250
 Alpha  occ. eigenvalues --   -0.47360  -0.45967  -0.42074  -0.39341  -0.35511
 Alpha  occ. eigenvalues --   -0.32218  -0.31720  -0.28934
 Alpha virt. eigenvalues --    0.00757   0.01078   0.01292   0.10701   0.13443
 Alpha virt. eigenvalues --    0.15389   0.17746   0.18406   0.18412   0.27988
 Alpha virt. eigenvalues --    0.28513   0.32059   0.32573   0.33771   0.39390

 Mulliken charges:
               1
     1  C   -0.010498
     2  C   -0.020805
     3  C    0.010230
     4  C   -0.186138
     5  C    0.010223
     6  C   -0.020802
     7  I    0.059205
     8  H    0.028878
     9  H    0.031943
    10  H    0.032911
    11  H    0.032914
    12  H    0.031940
 Sum of Mulliken charges =   0.00000

 Dipole moment (field-independent basis, Debye):
    X=             -1.6275    Y=              0.0000    Z=              0.0000  Tot=              1.6275
 Quadrupole moment (field-independent basis, Debye-Ang):
   XX=            -54.2997   YY=            -56.8003   ZZ=            -66.0418
   XY=              0.0000   XZ=              0.0000   YZ=              0.0000

  Exact polarizability: 128.077   0.000  83.602   0.000   0.000  41.075
 Approx polarizability: 152.815   0.000 117.468   0.000   0.000  57.963

                      1                      2                      3
                      A                      A                      A
 Frequencies --    159.3453               225.4978               273.6872
 Red. masses --      4.6997                 4.8275                 9.8503
 Frc consts  --      0.0703                 0.1446                 0.4347
 IR Inten    --      0.8558                 0.2054                 0.1358

                      4                      5                      6
                      A                      A                      A
 Frequencies --    414.5312               472.6993               619.8202
 Red. masses --      2.8462                 3.3506                 6.3829
 Frc consts  --      0.2882                 0.4411                 1.4448
 IR Inten    --      0.0000                 8.6910                 0.2633

                      7                      8                      9
                      A                      A                      A
 Frequencies --    668.5187               717.0819               764.5652
 Red. masses --      6.6849                 2.0590                 1.5202
 Frc consts  --      1.7602                 0.6238                 0.5236
 IR Inten    --     16.5154                25.3062                40.2873

                     10                     11                     12
                      A                      A                      A
 Frequencies --    867.0080               948.7991               999.5823
 Red. masses --      1.2493                 1.3598                 6.8286
 Frc consts  --      0.5533                 0.7212                 4.0199
 IR Inten    --      0.0000                 0.7404                28.9196

                     13                     14                     15
                      A                      A                      A
 Frequencies --   1013.8311              1041.6155              1059.3913
 Red. masses --      1.3799                 1.3368                 2.9763
 Frc consts  --      0.8357                 0.8545                 1.9681
 IR Inten    --      0.0000                 0.0167                 7.0442

                     16                     17                     18
                      A                      A                      A
 Frequencies --   1099.2923              1103.1035              1164.7598
 Red. masses --      2.2352                 1.4283                 1.0931
 Frc consts  --      1.5915                 1.0240                 0.8738
 IR Inten    --     11.3382                 4.7766                 0.0005

                     19                     20                     21
                      A                      A                      A
 Frequencies --   1189.6394              1318.1720              1360.7762
 Red. masses --      1.1020                 1.3582                 5.7718
 Frc consts  --      0.9189                 1.3904                 6.2970
 IR Inten    --      0.0518                 1.1698                 1.0647

                     22                     23                     24
                      A                      A                      A
 Frequencies --   1486.3828              1515.6668              1678.6215
 Red. masses --      2.4504                 2.3625                 6.3831
 Frc consts  --      3.1897                 3.1977                10.5971
 IR Inten    --     13.4626                39.1343                26.6439

                     25                     26                     27
                      A                      A                      A
 Frequencies --   1683.9764              3202.2327              3209.5082
 Red. masses --      6.7883                 1.0865                 1.0908
 Frc consts  --     11.3418                 6.5644                 6.6201
 IR Inten    --      1.1633                 0.0333                 3.3862

                     28                     29                     30
                      A                      A                      A
 Frequencies --   3219.6775              3223.6176              3228.5127
 Red. masses --      1.0945                 1.0977                 1.1014
 Frc consts  --      6.6848                 6.7208                 6.7641
 IR Inten    --      0.6857                 1.6633                 6.3108

 - Thermochemistry -
 -------------------
 Temperature   298.150 Kelvin.  Pressure   1.00000 Atm.
 Atom     1 has atomic number  6 and mass  12.00000

 Molecular mass:   203.93953 amu.
 Principal axes and moments of inertia in atomic units:
                           1         2         3
     Eigenvalues --   317.757352419.990722737.74807
           X            1.00000   0.00000   0.00000
           Y            0.00000   1.00000   0.00000
           Z            0.00000   0.00000   1.00000
 This molecule is an asymmetric top.
 Rotational symmetry number  1.
 Rotational temperatures (Kelvin)      0.27258     0.03579     0.03164
 Rotational constants (GHZ):           5.67962     0.74576     0.65921
 Zero-point vibrational energy     238833.9 (Joules/Mol)
                                   57.08268 (Kcal/Mol)
 Warning -- explicit consideration of   6 degrees of freedom as
           vibrations may cause significant error
 Vibrational temperatures:    229.26   324.44   393.77   596.42   680.11
          (Kelvin)            891.78   961.85  1031.72  1100.04  1247.43
                             1365.11  1438.17  1458.67  1498.65  1524.23
                             1581.63  1587.12  1675.83  1711.62  1896.55
                             1957.85  2138.57  2180.70  2415.16  2422.86
                             4607.29  4617.76  4632.39  4638.06  4645.10

 Zero-point correction=                           0.090967 (Hartree/Particle)
 Thermal correction to Energy=                    0.096772
 Thermal correction to Enthalpy=                  0.097716
 Thermal correction to Gibbs Free Energy=         0.059301
 Sum of electronic and zero-point Energies=           -528.902170
 Sum of electronic and thermal Energies=              -528.896365
 Sum of electronic and thermal Enthalpies=            -528.895420
 Sum of electronic and thermal Free Energies=         -528.933836

                     E (Thermal)             CV                S
                      KCal/Mol        Cal/Mol-Kelvin    Cal/Mol-Kelvin
 Total                   60.726             21.377             80.853
 Electronic               0.000              0.000              0.000
 Translational            0.889              2.981             41.842
 Rotational               0.889              2.981             29.133
 Vibrational             58.948             15.415              9.878
 Vibration     1          0.621              1.892              2.558
 Vibration     2          0.650              1.802              1.915
 Vibration     3          0.676              1.722              1.573
 Vibration     4          0.778              1.439              0.911
 Vibration     5          0.830              1.311              0.730
 Vibration     6          0.980              0.990              0.417

 Normal termination of Gaussian 09 at Sun Mar 16 20:25:27 2025.
