 Gaussian 09, Revision D.01,
 Gaussian 09:  ES64L-G09RevD.01 24-Apr-2013

 ---------------------------------
 #m062X/6-31+G(d) OPT Freq=noraman
 ---------------------------------

 ----------------
 1,4-benzoquinone
 ----------------
 Symbolic Z-matrix:
 Charge =  0 Multiplicity = 1

 SCF Done:  E(RM062X) =  -381.304684622     A.U. after   12 cycles
 SCF Done:  E(RM062X) =  -381.305611291     A.U. after   11 cycles
 SCF Done:  E(RM062X) =  -381.305703658     A.U. after   10 cycles
 SCF Done:  E(RM062X) =  -381.305703257     A.U. after    9 cycles
 SCF Done:  E(RM062X) =  -381.305705341     A.U. after    9 cycles
 Optimization completed.
    -- Stationary point found.

 1\1\GINC-KATANA3\FOpt\RM062X\6-31+G(d)\C6H4O2\Z5358697\16-Mar-2025\0\\
 #m062X/6-31+G(d) OPT Freq=noraman\\1,4-benzoquinone\\0,1\C,-0.72966502
 59,1.1841469103,0.3688028367\C,0.5414426126,1.0850919857,0.7746275479\
 C,1.3679872818,-0.1068232198,0.4371976919\O,2.5234307991,-0.1966166566
 ,0.8056080178\C,0.729585442,-1.1842658353,-0.3685679253\C,-0.541526419
 6,-1.0852161378,-0.7743820982\C,-1.3682550352,0.1064247899,-0.43643781
 61\O,-2.5234417272,0.1965994504,-0.8055618228\H,-1.3584079719,2.039793
 8219,0.5983540436\H,1.0356824636,1.8532338199,1.3627004465\H,1.3584309

 Normal termination of Gaussian 09 at Sun Mar 16 20:28:22 2025.

 ---------------------------------------------------------------------
 #N Geom=AllCheck Guess=TCheck SCRF=Check GenChk RM062X/6-31+G(d) Freq
 ---------------------------------------------------------------------

 Structure from the checkpoint file:  "/srv/scratch/z5358697/gauss/Gau-2405739.chk"
 ----------------
 1,4-benzoquinone
 ----------------
 Charge =  0 Multiplicity = 1

                         Standard orientation:
 ---------------------------------------------------------------------
 Center     Atomic      Atomic             Coordinates (Angstroms)
 Number     Number       Type             X           Y           Z
 ---------------------------------------------------------------------
      1          6           0        0.668996   -1.273998   -0.000034
      2          6           0       -0.668995   -1.273997   -0.000008
      3          6           0       -1.440116    0.000001    0.000336
      4          8           0       -2.656191   -0.000001   -0.000162
      5          6           0       -0.668996    1.273998   -0.000015
      6          6           0        0.668996    1.273997   -0.000028
      7          6           0        1.440116   -0.000001    0.000240
      8          8           0        2.656191    0.000000   -0.000112
      9          1           0        1.260029   -2.185493   -0.000207
     10          1           0       -1.260030   -2.185491   -0.000172
     11          1           0       -1.260030    2.185494   -0.000176
     12          1           0        1.260031    2.185491   -0.000203
 ---------------------------------------------------------------------

 SCF Done:  E(RM062X) =  -381.305705341     A.U. after    1 cycles

 The electronic state is 1-A.
 Alpha  occ. eigenvalues --  -19.67410 -19.67410 -10.67337 -10.67335 -10.60143
 Alpha  occ. eigenvalues --  -10.60141 -10.60033 -10.60033  -1.20116  -1.19921
 Alpha  occ. eigenvalues --   -0.97343  -0.90114  -0.80769  -0.73620  -0.69852
 Alpha  occ. eigenvalues --   -0.60077  -0.59775  -0.57489  -0.54158  -0.52896
 Alpha  occ. eigenvalues --   -0.52423  -0.50115  -0.49395  -0.48422  -0.37091
 Alpha  occ. eigenvalues --   -0.37083  -0.36667  -0.35044
 Alpha virt. eigenvalues --   -0.10143  -0.00232   0.01386   0.02514   0.03585
 Alpha virt. eigenvalues --    0.04002   0.04488   0.05512   0.05886   0.08168
 Alpha virt. eigenvalues --    0.08324   0.08386   0.08590   0.10045   0.12043

 Mulliken charges:
               1
     1  C   -0.045047
     2  C   -0.045045
     3  C    0.037106
     4  O   -0.440221
     5  C   -0.045045
     6  C   -0.045047
     7  C    0.037107
     8  O   -0.440221
     9  H    0.246603
    10  H    0.246603
    11  H    0.246603
    12  H    0.246603
 Sum of Mulliken charges =   0.00000

 Dipole moment (field-independent basis, Debye):
    X=              0.0000    Y=              0.0000    Z=              0.0009  Tot=              0.0009
 Quadrupole moment (field-independent basis, Debye-Ang):
   XX=            -63.0288   YY=            -37.4854   ZZ=            -46.1626
   XY=              0.0000   XZ=             -0.0005   YZ=              0.0000

  Exact polarizability: 113.579   0.000  64.064   0.000   0.000  38.258
 Approx polarizability: 163.564   0.000  69.011   0.001   0.000  48.588

                      1                      2                      3
                      A                      A                      A
 Frequencies --     85.7228               218.8920               337.6617
 Red. masses --      8.9133                 5.2297                 3.4511
 Frc consts  --      0.0386                 0.1476                 0.2318
 IR Inten    --     14.7618                 0.0000                 0.0000

                      4                      5                      6
                      A                      A                      A
 Frequencies --    421.9320               453.4166               455.5618
 Red. masses --     10.6787                11.1913                 5.0629
 Frc consts  --      1.1201                 1.3556                 0.6191
 IR Inten    --     27.5505                 0.0000                 0.0000

                      7                      8                      9
                      A                      A                      A
 Frequencies --    514.5633               606.5785               764.4338
 Red. masses --      2.0395                 6.5095                 4.0045
 Frc consts  --      0.3182                 1.4111                 1.3787
 IR Inten    --      3.7971                 0.0000                 0.2717

                     10                     11                     12
                      A                      A                      A
 Frequencies --    771.0452               776.5066               787.2688
 Red. masses --      1.2314                 7.9805                 7.3288
 Frc consts  --      0.4313                 2.8351                 2.6763
 IR Inten    --      0.0000                 0.0000                 0.0000

                     13                     14                     15
                      A                      A                      A
 Frequencies --    911.7759               952.5477              1036.6579
 Red. masses --      1.9692                 3.5575                 1.2227
 Frc consts  --      0.9645                 1.9018                 0.7742
 IR Inten    --     93.7751                15.9490                 0.0000

                     16                     17                     18
                      A                      A                      A
 Frequencies --   1040.6218              1102.3677              1179.0019
 Red. masses --      1.2726                 1.3707                 1.0635
 Frc consts  --      0.8119                 0.9814                 0.8710
 IR Inten    --      0.0000                38.3623                 0.0000

                     19                     20                     21
                      A                      A                      A
 Frequencies --   1255.0405              1347.4723              1396.6648
 Red. masses --      1.8709                 3.0517                 1.5428
 Frc consts  --      1.7363                 3.2647                 1.7731
 IR Inten    --      0.0000                86.4238                 6.0805

                     22                     23                     24
                      A                      A                      A
 Frequencies --   1425.1361              1701.1824              1728.6056
 Red. masses --      2.7595                 7.9403                 8.0443
 Frc consts  --      3.3021                13.5390                14.1621
 IR Inten    --      0.0000                15.5106                 0.0000

                     25                     26                     27
                      A                      A                      A
 Frequencies --   1821.4228              1828.4616              3237.0040
 Red. masses --     11.3833                10.2190                 1.0881
 Frc consts  --     22.2505                20.1293                 6.7173
 IR Inten    --    496.1160                 0.0000                 0.2245

                     28                     29                     30
                      A                      A                      A
 Frequencies --   3237.1581              3252.6355              3254.6464
 Red. masses --      1.0880                 1.1000                 1.1005
 Frc consts  --      6.7173                 6.8566                 6.8682
 IR Inten    --      0.0001                 1.7279                 0.0000

 - Thermochemistry -
 -------------------
 Temperature   298.150 Kelvin.  Pressure   1.00000 Atm.
 Atom     1 has atomic number  6 and mass  12.00000

 Molecular mass:   108.02113 amu.
 Principal axes and moments of inertia in atomic units:
                           1         2         3
     Eigenvalues --   346.973021083.307461430.28045
           X            1.00000   0.00000   0.00000
           Y            0.00000   1.00000   0.00000
           Z            0.00000   0.00000   1.00000
 This molecule is an asymmetric top.
 Rotational symmetry number  1.
 Rotational temperatures (Kelvin)      0.24963     0.07995     0.06056
 Rotational constants (GHZ):           5.20139     1.66595     1.26181
 Zero-point vibrational energy     226704.2 (Joules/Mol)
                                   54.18361 (Kcal/Mol)
 Warning -- explicit consideration of   8 degrees of freedom as
           vibrations may cause significant error
 Vibrational temperatures:    123.34   314.94   485.82   607.07   652.36
          (Kelvin)            655.45   740.34   872.73  1099.85  1109.36
                             1117.22  1132.70  1311.84  1370.50  1491.52
                             1497.22  1586.06  1696.32  1805.72  1938.71
                             2009.49  2050.45  2447.62  2487.07  2620.62
                             2630.75  4657.32  4657.54  4679.81  4682.70

 Zero-point correction=                           0.086347 (Hartree/Particle)
 Thermal correction to Energy=                    0.092617
 Thermal correction to Enthalpy=                  0.093561
 Thermal correction to Gibbs Free Energy=         0.055685
 Sum of electronic and zero-point Energies=           -381.219358
 Sum of electronic and thermal Energies=              -381.213088
 Sum of electronic and thermal Enthalpies=            -381.212144
 Sum of electronic and thermal Free Energies=         -381.250020

                     E (Thermal)             CV                S
                      KCal/Mol        Cal/Mol-Kelvin    Cal/Mol-Kelvin
 Total                   58.118             23.171             79.717
 Electronic               0.000              0.000              0.000
 Translational            0.889              2.981             39.948
 Rotational               0.889              2.981             27.777
 Vibrational             56.341             17.210             11.992
 Vibration     1          0.601              1.959              3.755
 Vibration     2          0.647              1.812              1.968
 Vibration     3          0.718              1.600              1.223
 Vibration     4          0.784              1.423              0.885
 Vibration     5          0.812              1.353              0.786
 Vibration     6          0.814              1.349              0.779
 Vibration     7          0.870              1.218              0.623
 Vibration     8          0.965              1.018              0.438

 Optimization completed.
    -- Stationary point found.

 1\1\GINC-KATANA3\Freq\RM062X\6-31+G(d)\C6H4O2\Z5358697\16-Mar-2025\0\\
 #N Geom=AllCheck Guess=TCheck SCRF=Check GenChk RM062X/6-31+G(d) Freq\
 \1,4-benzoquinone\\0,1\C,-0.7296650259,1.1841469103,0.3688028367\C,0.5
 414426126,1.0850919857,0.7746275479\C,1.3679872818,-0.1068232198,0.437
 1976919\O,2.5234307991,-0.1966166566,0.8056080178\C,0.729585442,-1.184
 2658353,-0.3685679253\C,-0.5415264196,-1.0852161378,-0.7743820982\C,-1
 .3682550352,0.1064247899,-0.4364378161\O,-2.5234417272,0.1965994504,-0
 .8055618228\H,-1.3584079719,2.0397938219,0.5983540436\H,1.0356824636,1

 Normal termination of Gaussian 09 at Sun Mar 16 20:32:26 2025.
