 Gaussian 09, Revision D.01,
 Gaussian 09:  ES64L-G09RevD.01 24-Apr-2013

 ---------------------------------
 #m062X/6-31+G(d) OPT Freq=noraman
 ---------------------------------

 ---------------------
 1,1,1-trichloroethane
 ---------------------
 Symbolic Z-matrix:
 Charge =  0 Multiplicity = 1

 SCF Done:  E(RM062X) =  -1458.46840677     A.U. after   12 cycles
 SCF Done:  E(RM062X) =  -1458.46903085     A.U. after   10 cycles
 SCF Done:  E(RM062X) =  -1458.46904292     A.U. after    9 cycles
 SCF Done:  E(RM062X) =  -1458.46909884     A.U. after    9 cycles
 SCF Done:  E(RM062X) =  -1458.46912576     A.U. after    9 cycles
 SCF Done:  E(RM062X) =  -1458.46914434     A.U. after    9 cycles
 Optimization completed.
    -- Stationary point found.
 Normal termination of Gaussian 09 at Fri Mar 14 15:45:36 2025.

 ---------------------------------------------------------------------
 #N Geom=AllCheck Guess=TCheck SCRF=Check GenChk RM062X/6-31+G(d) Freq
 ---------------------------------------------------------------------

 Structure from the checkpoint file:  "/srv/scratch/z5358697/gauss/Gau-1875453.chk"
 ---------------------
 1,1,1-trichloroethane
 ---------------------
 Charge =  0 Multiplicity = 1

                         Standard orientation:
 ---------------------------------------------------------------------
 Center     Atomic      Atomic             Coordinates (Angstroms)
 Number     Number       Type             X           Y           Z
 ---------------------------------------------------------------------
      1          6           0       -0.000431    0.000901    1.762916
      2          6           0       -0.000088   -0.000115    0.246171
      3         17           0       -1.619526   -0.444957   -0.361417
      4         17           0        0.424626    1.624606   -0.361697
      5         17           0        1.195169   -1.180142   -0.360871
      6          1           0        0.993787    0.272710    2.124389
      7          1           0       -0.732737    0.726523    2.123528
      8          1           0       -0.262513   -0.995556    2.125309
 ---------------------------------------------------------------------

 SCF Done:  E(RM062X) =  -1458.46914434     A.U. after    1 cycles

 The electronic state is 1-A.
 Alpha  occ. eigenvalues -- -102.69067-102.69059-102.69052 -10.74500 -10.58464
 Alpha  occ. eigenvalues --   -9.83807  -9.83801  -9.83794  -7.56239  -7.56233
 Alpha  occ. eigenvalues --   -7.56227  -7.55499  -7.55492  -7.55492  -7.55486
 Alpha  occ. eigenvalues --   -7.55485  -7.55479  -1.05997  -0.94008  -0.94003
 Alpha  occ. eigenvalues --   -0.85818  -0.68727  -0.56962  -0.56960  -0.54357
 Alpha  occ. eigenvalues --   -0.48266  -0.48265  -0.42058  -0.42054  -0.39472
 Alpha  occ. eigenvalues --   -0.38640  -0.38637  -0.37376
 Alpha virt. eigenvalues --   -0.00426   0.02452   0.03103   0.03105   0.04291
 Alpha virt. eigenvalues --    0.04763   0.04764   0.07995   0.09299   0.09304
 Alpha virt. eigenvalues --    0.11724   0.11725   0.11958   0.13363   0.13367

 Mulliken charges:
               1
     1  C   -0.560560
     2  C   -0.602021
     3  Cl   0.124968
     4  Cl   0.124848
     5  Cl   0.124141
     6  H    0.262873
     7  H    0.262890
     8  H    0.262862
 Sum of Mulliken charges =   0.00000

 Dipole moment (field-independent basis, Debye):
    X=             -0.0006    Y=              0.0005    Z=              1.9856  Tot=              1.9856
 Quadrupole moment (field-independent basis, Debye-Ang):
   XX=            -51.5113   YY=            -51.5144   ZZ=            -48.1704
   XY=              0.0018   XZ=             -0.0018   YZ=              0.0025

  Exact polarizability:  63.379  -0.043  63.372  -0.020   0.016  52.482
 Approx polarizability:  74.825  -0.004  74.811   0.003  -0.005  58.809

                      1                      2                      3
                      A                      A                      A
 Frequencies --    244.4643               244.9150               319.0934
 Red. masses --      9.9813                10.1150                 1.0213
 Frc consts  --      0.3515                 0.3575                 0.0613
 IR Inten    --      0.3673                 0.3238                 0.0000

                      4                      5                      6
                      A                      A                      A
 Frequencies --    351.3661               353.3174               354.1553
 Red. masses --     11.8619                 4.3329                 4.1892
 Frc consts  --      0.8628                 0.3187                 0.3096
 IR Inten    --      1.8233                 0.9214                 0.8246

                      7                      8                      9
                      A                      A                      A
 Frequencies --    540.0222               744.4796               761.2001
 Red. masses --      8.0496                 4.5507                 4.4050
 Frc consts  --      1.3831                 1.4861                 1.5038
 IR Inten    --     10.8151               122.3793               116.9674

                     10                     11                     12
                      A                      A                      A
 Frequencies --   1108.3270              1120.7401              1125.9817
 Red. masses --      5.8255                 1.5764                 1.5832
 Frc consts  --      4.2162                 1.1666                 1.1826
 IR Inten    --     15.7714                61.3183                60.8600

                     13                     14                     15
                      A                      A                      A
 Frequencies --   1440.0278              1501.9859              1504.8043
 Red. masses --      1.2399                 1.0411                 1.0417
 Frc consts  --      1.5149                 1.3838                 1.3899
 IR Inten    --     11.1405                 4.3319                 4.3623

                     16                     17                     18
                      A                      A                      A
 Frequencies --   3100.8274              3192.6802              3196.1843
 Red. masses --      1.0334                 1.1054                 1.1049
 Frc consts  --      5.8543                 6.6389                 6.6503
 IR Inten    --      1.8822                 1.6608                 1.4740

 - Thermochemistry -
 -------------------
 Temperature   298.150 Kelvin.  Pressure   1.00000 Atm.
 Atom     1 has atomic number  6 and mass  12.00000

 Molecular mass:   131.93003 amu.
 Principal axes and moments of inertia in atomic units:
                           1         2         3
     Eigenvalues --   765.91350 766.105451068.12861
           X            1.00000   0.00022  -0.00004
           Y           -0.00022   1.00000   0.00009
           Z            0.00004  -0.00009   1.00000
 This molecule is an asymmetric top.
 Rotational symmetry number  1.
 Warning -- assumption of classical behavior for rotation
           may cause significant error
 Rotational temperatures (Kelvin)      0.11309     0.11306     0.08109
 Rotational constants (GHZ):           2.35633     2.35573     1.68963
 Zero-point vibrational energy     126831.5 (Joules/Mol)
                                   30.31346 (Kcal/Mol)
 Warning -- explicit consideration of   7 degrees of freedom as
           vibrations may cause significant error
 Vibrational temperatures:    351.73   352.38   459.10   505.54   508.34
          (Kelvin)            509.55   776.97  1071.14  1095.20  1594.63
                             1612.49  1620.03  2071.88  2161.02  2165.08
                             4461.39  4593.55  4598.59

 Zero-point correction=                           0.048308 (Hartree/Particle)
 Thermal correction to Energy=                    0.054067
 Thermal correction to Enthalpy=                  0.055011
 Thermal correction to Gibbs Free Energy=         0.017922
 Sum of electronic and zero-point Energies=          -1458.420837
 Sum of electronic and thermal Energies=             -1458.415077
 Sum of electronic and thermal Enthalpies=           -1458.414133
 Sum of electronic and thermal Free Energies=        -1458.451222

                     E (Thermal)             CV                S
                      KCal/Mol        Cal/Mol-Kelvin    Cal/Mol-Kelvin
 Total                   33.928             19.509             78.060
 Electronic               0.000              0.000              0.000
 Translational            0.889              2.981             40.544
 Rotational               0.889              2.981             27.929
 Vibrational             32.150             13.547              9.587
 Vibration     1          0.660              1.772              1.770
 Vibration     2          0.660              1.771              1.767
 Vibration     3          0.705              1.637              1.315
 Vibration     4          0.728              1.572              1.160
 Vibration     5          0.730              1.568              1.151
 Vibration     6          0.730              1.567              1.148
 Vibration     7          0.895              1.162              0.565

 Normal termination of Gaussian 09 at Fri Mar 14 15:46:40 2025.
