 Gaussian 09, Revision D.01,
 Gaussian 09:  ES64L-G09RevD.01 24-Apr-2013

 ---------------------------------
 #m062X/6-31+G(d) OPT Freq=noraman
 ---------------------------------

 --------------
 cyclopentanone
 --------------
 Symbolic Z-matrix:
 Charge =  0 Multiplicity = 1

 SCF Done:  E(RM062X) =  -270.449733319     A.U. after   13 cycles
 SCF Done:  E(RM062X) =  -270.453148032     A.U. after   12 cycles
 SCF Done:  E(RM062X) =  -270.453458116     A.U. after   11 cycles
 SCF Done:  E(RM062X) =  -270.453491456     A.U. after   10 cycles
 SCF Done:  E(RM062X) =  -270.453493043     A.U. after   10 cycles
 SCF Done:  E(RM062X) =  -270.453493940     A.U. after   10 cycles
 Optimization completed.
    -- Stationary point found.

 1\1\GINC-KATANA2\FOpt\RM062X\6-31+G(d)\C5H8O1\Z5358697\17-Mar-2025\0\\
 #m062X/6-31+G(d) OPT Freq=noraman\\cyclopentanone\\0,1\C,1.0388942661,
 -0.7799207301,0.9753557371\C,1.5846755459,0.3488553918,0.079156015\C,0
 .3372530864,1.1596563364,-0.2864309793\C,-0.7904690587,0.1295708519,-0
 .31861541\O,-1.8981163969,0.3117869961,-0.7629052336\C,-0.2839516555,-
 1.1686528865,0.3074286702\H,0.8479513623,-0.3897584217,1.9826935932\H,
 1.7356119893,-1.6166859528,1.071808312\H,2.3566137038,0.9444204317,0.5
 734271035\H,2.0281875945,-0.0826920836,-0.8266399855\H,0.0921369534,1.

 Normal termination of Gaussian 09 at Mon Mar 17 15:36:37 2025.

 ---------------------------------------------------------------------
 #N Geom=AllCheck Guess=TCheck SCRF=Check GenChk RM062X/6-31+G(d) Freq
 ---------------------------------------------------------------------

 Structure from the checkpoint file:  "/srv/scratch/z5358697/gauss/Gau-4011026.chk"
 --------------
 cyclopentanone
 --------------
 Charge =  0 Multiplicity = 1

                         Standard orientation:
 ---------------------------------------------------------------------
 Center     Atomic      Atomic             Coordinates (Angstroms)
 Number     Number       Type             X           Y           Z
 ---------------------------------------------------------------------
      1          6           0       -1.372556    0.733118    0.237525
      2          6           0       -1.372673   -0.733066   -0.237336
      3          6           0        0.028471   -1.234423    0.126739
      4          6           0        0.919560   -0.000081   -0.000655
      5          8           0        2.126821   -0.000028    0.000312
      6          6           0        0.028544    1.234441   -0.126829
      7          1           0       -1.510068    0.767246    1.325340
      8          1           0       -2.173241    1.323655   -0.215314
      9          1           0       -2.173263   -1.323501    0.215801
     10          1           0       -1.510506   -0.767278   -1.325101
     11          1           0        0.070738   -1.556571    1.176523
     12          1           0        0.411451   -2.055963   -0.483838
     13          1           0        0.411837    2.055704    0.483925
     14          1           0        0.070411    1.556996   -1.176501
 ---------------------------------------------------------------------

 SCF Done:  E(RM062X) =  -270.453493940     A.U. after    1 cycles

 The electronic state is 1-A.
 Alpha  occ. eigenvalues --  -19.64121 -10.64169 -10.55905 -10.55871 -10.55689
 Alpha  occ. eigenvalues --  -10.55688  -1.17018  -0.94868  -0.82785  -0.78340
 Alpha  occ. eigenvalues --   -0.67774  -0.61526  -0.57320  -0.55388  -0.50159
 Alpha  occ. eigenvalues --   -0.49981  -0.47975  -0.46318  -0.42494  -0.41383
 Alpha  occ. eigenvalues --   -0.40707  -0.40225  -0.31255
 Alpha virt. eigenvalues --    0.01622   0.02004   0.03354   0.03361   0.04423
 Alpha virt. eigenvalues --    0.05731   0.07069   0.07645   0.08142   0.08319
 Alpha virt. eigenvalues --    0.11262   0.11341   0.11749   0.11928   0.12997

 Mulliken charges:
               1
     1  C   -0.456409
     2  C   -0.456114
     3  C   -0.443742
     4  C    0.348144
     5  O   -0.426826
     6  C   -0.443676
     7  H    0.223083
     8  H    0.220903
     9  H    0.220899
    10  H    0.223076
    11  H    0.248568
    12  H    0.246769
    13  H    0.246812
    14  H    0.248515
 Sum of Mulliken charges =   0.00000

 Dipole moment (field-independent basis, Debye):
    X=             -3.2634    Y=              0.0000    Z=             -0.0009  Tot=              3.2634
 Quadrupole moment (field-independent basis, Debye-Ang):
   XX=            -45.5425   YY=            -35.4156   ZZ=            -35.5441
   XY=              0.0000   XZ=             -0.0021   YZ=             -0.2098

  Exact polarizability:  63.569  -0.001  57.932   0.004  -0.698  47.388
 Approx polarizability:  71.283  -0.001  62.944   0.009  -1.009  58.221

                      1                      2                      3
                      A                      A                      A
 Frequencies --     97.0564               246.2898               452.6167
 Red. masses --      2.4655                 1.5842                 2.0580
 Frc consts  --      0.0137                 0.0566                 0.2484
 IR Inten    --      5.6835                 0.1299                 2.3781

                      4                      5                      6
                      A                      A                      A
 Frequencies --    474.8564               566.7037               585.6586
 Red. masses --      3.7347                 3.0767                 2.1189
 Frc consts  --      0.4962                 0.5822                 0.4282
 IR Inten    --      7.8636                 5.7805                 2.2547

                      7                      8                      9
                      A                      A                      A
 Frequencies --    723.5907               826.0663               858.4019
 Red. masses --      1.9679                 2.4960                 1.9493
 Frc consts  --      0.6071                 1.0035                 0.8463
 IR Inten    --      0.9690                 1.0530                 9.0150

                     10                     11                     12
                      A                      A                      A
 Frequencies --    918.0062               928.2380               973.1672
 Red. masses --      2.5616                 1.3750                 1.2359
 Frc consts  --      1.2719                 0.6980                 0.6896
 IR Inten    --      0.4035                 0.7908                 0.2240

                     13                     14                     15
                      A                      A                      A
 Frequencies --    987.5205              1052.8664              1175.9995
 Red. masses --      1.7425                 1.6049                 1.6221
 Frc consts  --      1.0012                 1.0482                 1.3217
 IR Inten    --     11.3133                 0.7412                 7.4124

                     16                     17                     18
                      A                      A                      A
 Frequencies --   1184.0372              1188.6292              1229.9052
 Red. masses --      3.1848                 1.5675                 1.4894
 Frc consts  --      2.6307                 1.3048                 1.3274
 IR Inten    --     59.0520                 0.3133                 0.0059

                     19                     20                     21
                      A                      A                      A
 Frequencies --   1263.9675              1315.8289              1320.6883
 Red. masses --      1.4401                 1.4379                 1.4463
 Frc consts  --      1.3556                 1.4668                 1.4863
 IR Inten    --      2.8478                11.6180                 2.0515

                     22                     23                     24
                      A                      A                      A
 Frequencies --   1353.5926              1356.3865              1470.3709
 Red. masses --      1.5696                 1.3910                 1.0851
 Frc consts  --      1.6944                 1.5078                 1.3823
 IR Inten    --      1.2256                 0.1391                 0.0605

                     25                     26                     27
                      A                      A                      A
 Frequencies --   1471.5122              1516.9561              1532.9212
 Red. masses --      1.0910                 1.0883                 1.1094
 Frc consts  --      1.3919                 1.4755                 1.5359
 IR Inten    --     22.6536                 6.1748                 1.8231

                     28                     29                     30
                      A                      A                      A
 Frequencies --   1885.6207              3075.5196              3075.8123
 Red. masses --     12.6068                 1.0713                 1.0682
 Frc consts  --     26.4097                 5.9702                 5.9542
 IR Inten    --    275.9519                 0.1171                 4.9677

                     31                     32                     33
                      A                      A                      A
 Frequencies --   3080.0303              3085.7765              3143.4963
 Red. masses --      1.0655                 1.0620                 1.0966
 Frc consts  --      5.9553                 5.9579                 6.3842
 IR Inten    --     25.0063                39.6897                18.3702

                     34                     35                     36
                      A                      A                      A
 Frequencies --   3147.0366              3152.9260              3154.5015
 Red. masses --      1.0991                 1.0978                 1.1017
 Frc consts  --      6.4133                 6.4299                 6.4593
 IR Inten    --     23.0642                 6.1833                20.9498

 - Thermochemistry -
 -------------------
 Temperature   298.150 Kelvin.  Pressure   1.00000 Atm.
 Atom     1 has atomic number  6 and mass  12.00000

 Molecular mass:    84.05751 amu.
 Principal axes and moments of inertia in atomic units:
                           1         2         3
     Eigenvalues --   272.20815 536.94329 747.48961
           X            1.00000   0.00000   0.00000
           Y            0.00000   0.99999  -0.00354
           Z            0.00000   0.00354   0.99999
 This molecule is an asymmetric top.
 Rotational symmetry number  1.
 Rotational temperatures (Kelvin)      0.31819     0.16131     0.11587
 Rotational constants (GHZ):           6.63000     3.36114     2.41440
 Zero-point vibrational energy     322229.4 (Joules/Mol)
                                   77.01468 (Kcal/Mol)
 Warning -- explicit consideration of   6 degrees of freedom as
           vibrations may cause significant error
 Vibrational temperatures:    139.64   354.36   651.21   683.21   815.36
          (Kelvin)            842.63  1041.08  1188.52  1235.05  1320.80
                             1335.53  1400.17  1420.82  1514.84  1692.00
                             1703.56  1710.17  1769.56  1818.57  1893.18
                             1900.17  1947.52  1951.54  2115.53  2117.18
                             2182.56  2205.53  2712.98  4424.98  4425.40
                             4431.47  4439.74  4522.78  4527.88  4536.35
                             4538.62

 Zero-point correction=                           0.122731 (Hartree/Particle)
 Thermal correction to Energy=                    0.128235
 Thermal correction to Enthalpy=                  0.129179
 Thermal correction to Gibbs Free Energy=         0.093701
 Sum of electronic and zero-point Energies=           -270.330763
 Sum of electronic and thermal Energies=              -270.325259
 Sum of electronic and thermal Enthalpies=            -270.324315
 Sum of electronic and thermal Free Energies=         -270.359793

                     E (Thermal)             CV                S
                      KCal/Mol        Cal/Mol-Kelvin    Cal/Mol-Kelvin
 Total                   80.469             20.371             74.671
 Electronic               0.000              0.000              0.000
 Translational            0.889              2.981             39.200
 Rotational               0.889              2.981             26.194
 Vibrational             78.691             14.409              9.277
 Vibration     1          0.603              1.951              3.513
 Vibration     2          0.661              1.769              1.757
 Vibration     3          0.811              1.355              0.788
 Vibration     4          0.832              1.306              0.724
 Vibration     5          0.923              1.103              0.511
 Vibration     6          0.943              1.062              0.475

 Optimization completed.
    -- Stationary point found.

 1\1\GINC-KATANA2\Freq\RM062X\6-31+G(d)\C5H8O1\Z5358697\17-Mar-2025\0\\
 #N Geom=AllCheck Guess=TCheck SCRF=Check GenChk RM062X/6-31+G(d) Freq\
 \cyclopentanone\\0,1\C,1.0388942661,-0.7799207301,0.9753557371\C,1.584
 6755459,0.3488553918,0.079156015\C,0.3372530864,1.1596563364,-0.286430
 9793\C,-0.7904690587,0.1295708519,-0.31861541\O,-1.8981163969,0.311786
 9961,-0.7629052336\C,-0.2839516555,-1.1686528865,0.3074286702\H,0.8479
 513623,-0.3897584217,1.9826935932\H,1.7356119893,-1.6166859528,1.07180
 8312\H,2.3566137038,0.9444204317,0.5734271035\H,2.0281875945,-0.082692

 Normal termination of Gaussian 09 at Mon Mar 17 15:39:51 2025.
