 Gaussian 09, Revision D.01,
 Gaussian 09:  ES64L-G09RevD.01 24-Apr-2013

 ---------------------------------
 #m062X/6-31+G(d) OPT Freq=noraman
 ---------------------------------

 ----------------------
 1,2,3-trichlorobenzene
 ----------------------
 Symbolic Z-matrix:
 Charge =  0 Multiplicity = 1

 SCF Done:  E(RM062X) =  -1610.84407069     A.U. after   14 cycles
 SCF Done:  E(RM062X) =  -1610.84495853     A.U. after   12 cycles
 SCF Done:  E(RM062X) =  -1610.84503636     A.U. after   10 cycles
 SCF Done:  E(RM062X) =  -1610.84504048     A.U. after    9 cycles
 Optimization completed.
    -- Stationary point found.
 Normal termination of Gaussian 09 at Sun Mar 16 20:36:24 2025.

 ---------------------------------------------------------------------
 #N Geom=AllCheck Guess=TCheck SCRF=Check GenChk RM062X/6-31+G(d) Freq
 ---------------------------------------------------------------------

 Structure from the checkpoint file:  "/srv/scratch/z5358697/gauss/Gau-3627019.chk"
 ----------------------
 1,2,3-trichlorobenzene
 ----------------------
 Charge =  0 Multiplicity = 1

                         Standard orientation:
 ---------------------------------------------------------------------
 Center     Atomic      Atomic             Coordinates (Angstroms)
 Number     Number       Type             X           Y           Z
 ---------------------------------------------------------------------
      1          6           0       -0.000008   -2.504534    0.000001
      2          6           0        1.205469   -1.812757   -0.000001
      3          6           0        1.203949   -0.421026    0.000002
      4          6           0        0.000001    0.295188    0.000006
      5          6           0       -1.203951   -0.421019    0.000002
      6          6           0       -1.205480   -1.812752   -0.000001
      7         17           0       -2.724525    0.411138   -0.000001
      8         17           0        0.000008    2.020455    0.000000
      9         17           0        2.724526    0.411128   -0.000001
     10          1           0       -0.000010   -3.589679    0.000000
     11          1           0        2.154596   -2.337600   -0.000004
     12          1           0       -2.154612   -2.337586   -0.000003
 ---------------------------------------------------------------------

 SCF Done:  E(RM062X) =  -1610.84504048     A.U. after    2 cycles

 The electronic state is 1-A.
 Alpha  occ. eigenvalues -- -102.69050-102.68887-102.68887 -10.64957 -10.64661
 Alpha  occ. eigenvalues --  -10.64651 -10.59045 -10.59016 -10.58912  -9.83672
 Alpha  occ. eigenvalues --   -9.83533  -9.83533  -7.56104  -7.55956  -7.55956
 Alpha  occ. eigenvalues --   -7.55407  -7.55363  -7.55267  -7.55267  -7.55237
 Alpha  occ. eigenvalues --   -7.55236  -1.05015  -0.99533  -0.96948  -0.94333
 Alpha  occ. eigenvalues --   -0.84728  -0.84668  -0.71212  -0.71081  -0.61234
 Alpha  occ. eigenvalues --   -0.58648  -0.55475  -0.52357  -0.52108  -0.51834
 Alpha  occ. eigenvalues --   -0.46376  -0.46059  -0.44763  -0.42348  -0.40797
 Alpha  occ. eigenvalues --   -0.40069  -0.39739  -0.37584  -0.31703  -0.31695
 Alpha virt. eigenvalues --   -0.01307  -0.01080   0.00385   0.01276   0.02560
 Alpha virt. eigenvalues --    0.03866   0.04262   0.04369   0.05881   0.06441
 Alpha virt. eigenvalues --    0.07641   0.08105   0.08968   0.09168   0.09326

 Mulliken charges:
               1
     1  C   -0.131855
     2  C   -0.182584
     3  C   -0.424660
     4  C   -0.087039
     5  C   -0.424657
     6  C   -0.182587
     7  Cl   0.221969
     8  Cl   0.283425
     9  Cl   0.221969
    10  H    0.227028
    11  H    0.239495
    12  H    0.239495
 Sum of Mulliken charges =   0.00000

 Dipole moment (field-independent basis, Debye):
    X=              0.0000    Y=             -2.7641    Z=              0.0000  Tot=              2.7641
 Quadrupole moment (field-independent basis, Debye-Ang):
   XX=            -72.4757   YY=            -64.7013   ZZ=            -74.9438
   XY=              0.0000   XZ=              0.0000   YZ=              0.0000

  Exact polarizability: 127.626   0.000 119.919   0.000   0.000  55.509
 Approx polarizability: 154.355   0.000 152.605   0.000   0.000  71.338

                      1                      2                      3
                      A                      A                      A
 Frequencies --     74.9369               198.3245               210.3575
 Red. masses --     21.8113                 4.5825                25.0025
 Frc consts  --      0.0722                 0.1062                 0.6519
 IR Inten    --      0.1428                 0.0000                 0.0008

                      4                      5                      6
                      A                      A                      A
 Frequencies --    225.4196               241.9602               351.7146
 Red. masses --     33.1648                 6.5588                26.5565
 Frc consts  --      0.9929                 0.2262                 1.9355
 IR Inten    --      0.0511                 2.6153                 0.1468

                      7                      8                      9
                      A                      A                      A
 Frequencies --    407.8802               488.3357               516.8309
 Red. masses --      6.6282                 8.3865                 3.9370
 Frc consts  --      0.6497                 1.1783                 0.6196
 IR Inten    --      2.2373                 0.9353                 0.0021

                     10                     11                     12
                      A                      A                      A
 Frequencies --    519.3060               532.0599               715.0502
 Red. masses --     11.8529                 5.3141                 3.7837
 Frc consts  --      1.8833                 0.8863                 1.1398
 IR Inten    --     10.4260                 0.0000                10.9113

                     13                     14                     15
                      A                      A                      A
 Frequencies --    747.1790               790.9730               804.1959
 Red. masses --      7.0392                 1.4197                 8.8947
 Frc consts  --      2.3154                 0.5233                 3.3893
 IR Inten    --      6.9256                48.8735                79.2560

                     16                     17                     18
                      A                      A                      A
 Frequencies --    914.9041               999.1689              1057.9941
 Red. masses --      1.3679                 1.3162                 7.5407
 Frc consts  --      0.6746                 0.7742                 4.9731
 IR Inten    --      0.0000                 0.2713                 7.2427

                     19                     20                     21
                      A                      A                      A
 Frequencies --   1125.3206              1187.4455              1199.3316
 Red. masses --      2.2630                 1.2225                 2.9117
 Frc consts  --      1.6885                 1.0156                 2.4676
 IR Inten    --      4.0082                 5.5494                35.1327

                     22                     23                     24
                      A                      A                      A
 Frequencies --   1235.3142              1315.9414              1468.8901
 Red. masses --      1.6195                 9.1430                 3.3742
 Frc consts  --      1.4561                 9.3285                 4.2895
 IR Inten    --     19.7783                 2.9326                54.6433

                     25                     26                     27
                      A                      A                      A
 Frequencies --   1489.4708              1656.9993              1659.9897
 Red. masses --      2.4676                 7.1253                 6.7602
 Frc consts  --      3.2255                11.5265                10.9755
 IR Inten    --     72.7235                39.1191                 0.4368

                     28                     29                     30
                      A                      A                      A
 Frequencies --   3222.9552              3237.1439              3242.7672
 Red. masses --      1.0882                 1.0933                 1.0983
 Frc consts  --      6.6598                 6.7500                 6.8043
 IR Inten    --      2.2456                 0.0164                 0.6260

 - Thermochemistry -
 -------------------
 Temperature   298.150 Kelvin.  Pressure   1.00000 Atm.
 Atom     1 has atomic number  6 and mass  12.00000

 Molecular mass:   179.93003 amu.
 Principal axes and moments of inertia in atomic units:
                           1         2         3
     Eigenvalues --  1204.680162136.109643340.78980
           X            1.00000   0.00000   0.00000
           Y            0.00000   1.00000   0.00000
           Z            0.00000   0.00000   1.00000
 This molecule is an asymmetric top.
 Rotational symmetry number  1.
 Warning -- assumption of classical behavior for rotation
           may cause significant error
 Rotational temperatures (Kelvin)      0.07190     0.04055     0.02593
 Rotational constants (GHZ):           1.49811     0.84487     0.54021
 Zero-point vibrational energy     190434.5 (Joules/Mol)
                                   45.51494 (Kcal/Mol)
 Warning -- explicit consideration of  11 degrees of freedom as
           vibrations may cause significant error
 Vibrational temperatures:    107.82   285.34   302.66   324.33   348.13
          (Kelvin)            506.04   586.85   702.61   743.60   747.16
                              765.51  1028.80  1075.02  1138.03  1157.06
                             1316.34  1437.58  1522.22  1619.08  1708.47
                             1725.57  1777.34  1893.34  2113.40  2143.01
                             2384.05  2388.35  4637.11  4657.52  4665.61

 Zero-point correction=                           0.072533 (Hartree/Particle)
 Thermal correction to Energy=                    0.080370
 Thermal correction to Enthalpy=                  0.081314
 Thermal correction to Gibbs Free Energy=         0.038549
 Sum of electronic and zero-point Energies=          -1610.772508
 Sum of electronic and thermal Energies=             -1610.764671
 Sum of electronic and thermal Enthalpies=           -1610.763727
 Sum of electronic and thermal Free Energies=        -1610.806491

                     E (Thermal)             CV                S
                      KCal/Mol        Cal/Mol-Kelvin    Cal/Mol-Kelvin
 Total                   50.433             28.348             90.006
 Electronic               0.000              0.000              0.000
 Translational            0.889              2.981             41.469
 Rotational               0.889              2.981             30.531
 Vibrational             48.655             22.387             18.006
 Vibration     1          0.599              1.966              4.019
 Vibration     2          0.637              1.842              2.149
 Vibration     3          0.643              1.825              2.041
 Vibration     4          0.650              1.802              1.915
 Vibration     5          0.658              1.776              1.788
 Vibration     6          0.728              1.572              1.159
 Vibration     7          0.772              1.453              0.934
 Vibration     8          0.844              1.276              0.688
 Vibration     9          0.872              1.213              0.617
 Vibration    10          0.874              1.207              0.612
 Vibration    11          0.887              1.179              0.583

 Optimization completed.
    -- Stationary point found.
 Normal termination of Gaussian 09 at Sun Mar 16 20:42:21 2025.
