 Gaussian 09, Revision D.01,
 Gaussian 09:  ES64L-G09RevD.01 24-Apr-2013

 ---------------------------------
 #m062X/6-31+G(d) OPT Freq=noraman
 ---------------------------------

 ------------------
 1,1-dichloroethane
 ------------------
 Symbolic Z-matrix:
 Charge =  0 Multiplicity = 1

 SCF Done:  E(RM062X) =  -998.909699983     A.U. after   12 cycles
 SCF Done:  E(RM062X) =  -998.910251851     A.U. after   10 cycles
 SCF Done:  E(RM062X) =  -998.910275583     A.U. after    9 cycles
 SCF Done:  E(RM062X) =  -998.910276256     A.U. after    8 cycles
 Optimization completed.
    -- Stationary point found.
 Normal termination of Gaussian 09 at Wed Mar 19 12:15:24 2025.

 ---------------------------------------------------------------------
 #N Geom=AllCheck Guess=TCheck SCRF=Check GenChk RM062X/6-31+G(d) Freq
 ---------------------------------------------------------------------

 Structure from the checkpoint file:  "/srv/scratch/z5358697/gauss/Gau-1289329.chk"
 ------------------
 1,1-dichloroethane
 ------------------
 Charge =  0 Multiplicity = 1

                         Standard orientation:
 ---------------------------------------------------------------------
 Center     Atomic      Atomic             Coordinates (Angstroms)
 Number     Number       Type             X           Y           Z
 ---------------------------------------------------------------------
      1          6           0        0.000224    1.728946   -0.143674
      2          6           0       -0.000023    0.330464    0.433740
      3         17           0        1.469148   -0.555961   -0.070942
      4         17           0       -1.469278   -0.555755   -0.070946
      5          1           0       -0.891528    2.264786    0.192119
      6          1           0        0.891665    2.264813    0.192925
      7          1           0        0.000748    1.685069   -1.235378
      8          1           0        0.000127    0.328035    1.522034
 ---------------------------------------------------------------------

 SCF Done:  E(RM062X) =  -998.910276256     A.U. after    1 cycles

 The electronic state is 1-A.
 Alpha  occ. eigenvalues -- -102.67470-102.67469 -10.68149 -10.57245  -9.82213
 Alpha  occ. eigenvalues --   -9.82211  -7.54624  -7.54623  -7.53933  -7.53931
 Alpha  occ. eigenvalues --   -7.53915  -7.53914  -1.01619  -0.92283  -0.84891
 Alpha  occ. eigenvalues --   -0.70749  -0.57183  -0.54381  -0.51329  -0.46690
 Alpha  occ. eigenvalues --   -0.46116  -0.39439  -0.38956  -0.37134  -0.36977
 Alpha virt. eigenvalues --    0.01794   0.02521   0.03953   0.04240   0.05587
 Alpha virt. eigenvalues --    0.05737   0.08810   0.09288   0.09366   0.10680
 Alpha virt. eigenvalues --    0.11951   0.12422   0.13339   0.13578   0.14290

 Mulliken charges:
               1
     1  C   -0.630231
     2  C   -0.492935
     3  Cl   0.047814
     4  Cl   0.047822
     5  H    0.236890
     6  H    0.236899
     7  H    0.256966
     8  H    0.296776
 Sum of Mulliken charges =   0.00000

 Dipole moment (field-independent basis, Debye):
    X=              0.0000    Y=              2.1024    Z=              0.8675  Tot=              2.2743
 Quadrupole moment (field-independent basis, Debye-Ang):
   XX=            -41.2080   YY=            -37.3397   ZZ=            -37.6020
   XY=              0.0008   XZ=              0.0002   YZ=              0.4241

  Exact polarizability:  57.441  -0.001  46.692   0.001   1.518  38.116
 Approx polarizability:  64.485  -0.001  50.136   0.001   3.123  44.770

                      1                      2                      3
                      A                      A                      A
 Frequencies --    275.2350               279.1309               326.7745
 Red. masses --      1.1105                13.6591                 2.5698
 Frc consts  --      0.0496                 0.6270                 0.1617
 IR Inten    --      0.0698                 1.3890                 0.5329

                      4                      5                      6
                      A                      A                      A
 Frequencies --    410.2486               664.2569               732.9409
 Red. masses --      3.7769                 4.4696                 4.5678
 Frc consts  --      0.3745                 1.1620                 1.4458
 IR Inten    --      4.4032                13.8413               118.1807

                      7                      8                      9
                      A                      A                      A
 Frequencies --   1007.9839              1089.4683              1124.9618
 Red. masses --      1.5802                 1.4466                 2.6342
 Frc consts  --      0.9460                 1.0116                 1.9642
 IR Inten    --     12.6089                45.7087                 3.5383

                     10                     11                     12
                      A                      A                      A
 Frequencies --   1294.9236              1323.9969              1435.6600
 Red. masses --      1.1142                 1.2490                 1.2694
 Frc consts  --      1.1007                 1.2900                 1.5415
 IR Inten    --     44.1235                12.9365                12.6193

                     13                     14                     15
                      A                      A                      A
 Frequencies --   1508.0299              1508.3314              3091.5627
 Red. masses --      1.0433                 1.0382                 1.0343
 Frc consts  --      1.3978                 1.3917                 5.8242
 IR Inten    --      3.1026                 8.5655                 5.2841

                     16                     17                     18
                      A                      A                      A
 Frequencies --   3177.3869              3178.4411              3199.6283
 Red. masses --      1.1011                 1.1041                 1.0914
 Frc consts  --      6.5494                 6.5720                 6.5834
 IR Inten    --      1.3932                 5.2171                 4.4658

 - Thermochemistry -
 -------------------
 Temperature   298.150 Kelvin.  Pressure   1.00000 Atm.
 Atom     1 has atomic number  6 and mass  12.00000

 Molecular mass:    97.96901 amu.
 Principal axes and moments of inertia in atomic units:
                           1         2         3
     Eigenvalues --   279.66171 569.08155 800.24672
           X            1.00000   0.00002   0.00000
           Y           -0.00002   0.99994  -0.01111
           Z            0.00000   0.01111   0.99994
 This molecule is an asymmetric top.
 Rotational symmetry number  1.
 Rotational temperatures (Kelvin)      0.30971     0.15220     0.10823
 Rotational constants (GHZ):           6.45330     3.17132     2.25523
 Zero-point vibrational energy     153295.2 (Joules/Mol)
                                   36.63844 (Kcal/Mol)
 Warning -- explicit consideration of   4 degrees of freedom as
           vibrations may cause significant error
 Vibrational temperatures:    396.00   401.61   470.16   590.26   955.72
          (Kelvin)           1054.54  1450.26  1567.50  1618.57  1863.10
                             1904.93  2065.59  2169.72  2170.15  4448.06
                             4571.55  4573.06  4603.55

 Zero-point correction=                           0.058387 (Hartree/Particle)
 Thermal correction to Energy=                    0.063156
 Thermal correction to Enthalpy=                  0.064100
 Thermal correction to Gibbs Free Energy=         0.029781
 Sum of electronic and zero-point Energies=           -998.851889
 Sum of electronic and thermal Energies=              -998.847121
 Sum of electronic and thermal Enthalpies=            -998.846176
 Sum of electronic and thermal Free Energies=         -998.880495

                     E (Thermal)             CV                S
                      KCal/Mol        Cal/Mol-Kelvin    Cal/Mol-Kelvin
 Total                   39.631             15.573             72.230
 Electronic               0.000              0.000              0.000
 Translational            0.889              2.981             39.657
 Rotational               0.889              2.981             26.346
 Vibrational             37.853              9.612              6.227
 Vibration     1          0.677              1.719              1.563
 Vibration     2          0.679              1.712              1.539
 Vibration     3          0.710              1.622              1.276
 Vibration     4          0.774              1.448              0.926

 Optimization completed.
    -- Stationary point found.
 Normal termination of Gaussian 09 at Wed Mar 19 12:16:07 2025.
