 Gaussian 09, Revision D.01,
 Gaussian 09:  ES64L-G09RevD.01 24-Apr-2013

 ---------------------------------
 #m062X/6-31+G(d) OPT Freq=noraman
 ---------------------------------

 ----------------
 2-methylpyridine
 ----------------
 Symbolic Z-matrix:
 Charge =  0 Multiplicity = 1

 SCF Done:  E(RM062X) =  -287.478731558     A.U. after   13 cycles
 SCF Done:  E(RM062X) =  -287.480210457     A.U. after   12 cycles
 SCF Done:  E(RM062X) =  -287.480289607     A.U. after   11 cycles
 SCF Done:  E(RM062X) =  -287.480305758     A.U. after   10 cycles
 SCF Done:  E(RM062X) =  -287.480335656     A.U. after   11 cycles
 SCF Done:  E(RM062X) =  -287.480399617     A.U. after   11 cycles
 SCF Done:  E(RM062X) =  -287.480493141     A.U. after   14 cycles
 SCF Done:  E(RM062X) =  -287.480507018     A.U. after   11 cycles
 SCF Done:  E(RM062X) =  -287.480509371     A.U. after   11 cycles
 SCF Done:  E(RM062X) =  -287.480509674     A.U. after    9 cycles
 SCF Done:  E(RM062X) =  -287.480509719     A.U. after   10 cycles
 Optimization completed.
    -- Stationary point found.

 1\1\GINC-KATANA3\FOpt\RM062X\6-31+G(d)\C6H7N1\Z5358697\21-Mar-2025\0\\
 #m062X/6-31+G(d) OPT Freq=noraman\\2-methylpyridine\\0,1\C,0.981600104
 5,-2.1491484348,4.7703046544\C,0.7515506878,-1.5140494154,3.4253669158
 \C,1.619679514,-0.5457780073,2.91079737\C,1.3570817469,0.0063877243,1.
 6609168746\C,0.2349040377,-0.4246240391,0.9615264345\C,-0.5715882795,-
 1.3942065153,1.5558451251\N,-0.3295482786,-1.9297732489,2.7521978569\H
 ,1.0992530507,-3.2313403578,4.6576679363\H,1.8714526813,-1.7463943142,
 5.2607227923\H,0.1144540121,-1.9808011577,5.4161666684\H,2.4861370687,

 Normal termination of Gaussian 09 at Fri Mar 21 13:25:08 2025.

 ---------------------------------------------------------------------
 #N Geom=AllCheck Guess=TCheck SCRF=Check GenChk RM062X/6-31+G(d) Freq
 ---------------------------------------------------------------------

 Structure from the checkpoint file:  "/srv/scratch/z5358697/gauss/Gau-4098047.chk"
 ----------------
 2-methylpyridine
 ----------------
 Charge =  0 Multiplicity = 1

                         Standard orientation:
 ---------------------------------------------------------------------
 Center     Atomic      Atomic             Coordinates (Angstroms)
 Number     Number       Type             X           Y           Z
 ---------------------------------------------------------------------
      1          6           0       -2.379399   -0.012738    0.000128
      2          6           0       -0.874515    0.008572   -0.000315
      3          6           0       -0.155700    1.208273   -0.000177
      4          6           0        1.235097    1.166680    0.000130
      5          6           0        1.867342   -0.072056    0.000147
      6          6           0        1.066449   -1.213242    0.000094
      7          7           0       -0.266172   -1.185026   -0.000215
      8          1           0       -2.745799   -0.533290    0.890322
      9          1           0       -2.798051    0.996732   -0.015952
     10          1           0       -2.745490   -0.561923   -0.872681
     11          1           0       -0.685188    2.156559   -0.000328
     12          1           0        1.813894    2.086179    0.000134
     13          1           0        2.948946   -0.159132    0.000026
     14          1           0        1.519247   -2.202872   -0.000052
 ---------------------------------------------------------------------

 SCF Done:  E(RM062X) =  -287.480509719     A.U. after    1 cycles

 The electronic state is 1-A.
 Alpha  occ. eigenvalues --  -14.76075 -10.59617 -10.58793 -10.57453 -10.56214
 Alpha  occ. eigenvalues --  -10.56210 -10.54275  -1.05670  -0.90671  -0.88364
 Alpha  occ. eigenvalues --   -0.79445  -0.71798  -0.68914  -0.59381  -0.55910
 Alpha  occ. eigenvalues --   -0.53470  -0.50282  -0.48839  -0.47510  -0.44775
 Alpha  occ. eigenvalues --   -0.44628  -0.42083  -0.34495  -0.32255  -0.30925
 Alpha virt. eigenvalues --    0.00159   0.01522   0.01580   0.02945   0.03565
 Alpha virt. eigenvalues --    0.05059   0.05805   0.06159   0.06823   0.08466
 Alpha virt. eigenvalues --    0.08777   0.09236   0.09529   0.11575   0.12312

 Mulliken charges:
               1
     1  C   -0.866017
     2  C   -0.033630
     3  C    0.191087
     4  C   -0.398717
     5  C    0.000563
     6  C   -0.243251
     7  N   -0.168289
     8  H    0.237905
     9  H    0.204230
    10  H    0.237765
    11  H    0.208553
    12  H    0.214598
    13  H    0.214107
    14  H    0.201096
 Sum of Mulliken charges =   0.00000

 Dipole moment (field-independent basis, Debye):
    X=              0.7624    Y=              1.8000    Z=              0.0017  Tot=              1.9548
 Quadrupole moment (field-independent basis, Debye-Ang):
   XX=            -36.4174   YY=            -41.3799   ZZ=            -44.7253
   XY=             -1.9059   XZ=             -0.0039   YZ=              0.0005

  Exact polarizability:  91.520  -0.473  78.735  -0.025  -0.005  44.947
 Approx polarizability: 108.206  -0.195 103.742  -0.025  -0.005  55.851

 ******    1 imaginary frequencies (negative Signs) ******

                      1                      2                      3
                      A                      A                      A
 Frequencies --    -27.0202               200.5924               358.5128
 Red. masses --      1.0512                 3.0285                 2.5639
 Frc consts  --      0.0005                 0.0718                 0.1942
 IR Inten    --      0.5661                 3.4782                 2.9227

                      4                      5                      6
                      A                      A                      A
 Frequencies --    416.3079               480.3754               555.2246
 Red. masses --      3.4113                 2.5899                 5.2486
 Frc consts  --      0.3483                 0.3521                 0.9533
 IR Inten    --      4.3009                 4.4286                 1.6815

                      7                      8                      9
                      A                      A                      A
 Frequencies --    638.4644               752.8498               769.4897
 Red. masses --      6.7985                 3.4220                 1.1903
 Frc consts  --      1.6328                 1.1427                 0.4153
 IR Inten    --      1.3887                 5.0285                51.6946

                     10                     11                     12
                      A                      A                      A
 Frequencies --    832.3084               906.6732               988.3273
 Red. masses --      4.5154                 1.2734                 1.4030
 Frc consts  --      1.8430                 0.6168                 0.8074
 IR Inten    --      0.4238                 0.0089                 0.1158

                     13                     14                     15
                      A                      A                      A
 Frequencies --   1007.6197              1026.9807              1029.1652
 Red. masses --      1.8210                 3.5394                 1.3251
 Frc consts  --      1.0893                 2.1994                 0.8269
 IR Inten    --      1.7167                 3.4583                 0.0505

                     16                     17                     18
                      A                      A                      A
 Frequencies --   1071.9691              1092.5011              1137.0688
 Red. masses --      1.6195                 2.2203                 1.3852
 Frc consts  --      1.0965                 1.5614                 1.0552
 IR Inten    --      5.3056                 4.1239                 2.1476

                     19                     20                     21
                      A                      A                      A
 Frequencies --   1178.8520              1277.9285              1311.8067
 Red. masses --      1.1454                 2.6107                 5.3292
 Frc consts  --      0.9378                 2.5120                 5.4032
 IR Inten    --      4.3984                 3.0225                 1.1461

                     22                     23                     24
                      A                      A                      A
 Frequencies --   1342.3316              1431.4420              1480.7908
 Red. masses --      1.3854                 1.3110                 1.8310
 Frc consts  --      1.4708                 1.5827                 2.3655
 IR Inten    --      4.1321                 3.3373                15.1491

                     25                     26                     27
                      A                      A                      A
 Frequencies --   1497.7057              1517.7753              1539.5024
 Red. masses --      1.0444                 1.2608                 2.4441
 Frc consts  --      1.3803                 1.7112                 3.4129
 IR Inten    --      7.4679                28.6768                26.3010

                     28                     29                     30
                      A                      A                      A
 Frequencies --   1669.8138              1687.9869              3080.6479
 Red. masses --      6.2027                 6.2925                 1.0356
 Frc consts  --     10.1899                10.5636                 5.7907
 IR Inten    --     20.4952                61.1589                13.7817

                     31                     32                     33
                      A                      A                      A
 Frequencies --   3153.5448              3166.5012              3196.3648
 Red. masses --      1.1013                 1.1036                 1.0896
 Frc consts  --      6.4530                 6.5196                 6.5590
 IR Inten    --      6.8051                12.9638                17.7520

                     34                     35                     36
                      A                      A                      A
 Frequencies --   3210.7428              3225.3739              3239.2268
 Red. masses --      1.0893                 1.0934                 1.0987
 Frc consts  --      6.6164                 6.7017                 6.7925
 IR Inten    --      2.6453                14.3631                 9.9265

 - Thermochemistry -
 -------------------
 Temperature   298.150 Kelvin.  Pressure   1.00000 Atm.
 Atom     1 has atomic number  6 and mass  12.00000

 Molecular mass:    93.05785 amu.
 Principal axes and moments of inertia in atomic units:
                           1         2         3
     Eigenvalues --   315.52874 684.45907 988.79848
           X            0.99992  -0.01290  -0.00002
           Y            0.01290   0.99992  -0.00001
           Z            0.00002   0.00001   1.00000
 This molecule is an asymmetric top.
 Rotational symmetry number  1.
 Rotational temperatures (Kelvin)      0.27450     0.12654     0.08760
 Rotational constants (GHZ):           5.71974     2.63674     1.82519
    1 imaginary frequencies ignored.
 Zero-point vibrational energy     307875.5 (Joules/Mol)
                                   73.58402 (Kcal/Mol)
 Warning -- explicit consideration of   5 degrees of freedom as
           vibrations may cause significant error
 Vibrational temperatures:    288.61   515.82   598.97   691.15   798.84
          (Kelvin)            918.61  1083.18  1107.12  1197.50  1304.50
                             1421.98  1449.74  1477.59  1480.74  1542.32
                             1571.86  1635.99  1696.10  1838.65  1887.39
                             1931.31  2059.52  2130.53  2154.86  2183.74
                             2215.00  2402.49  2428.63  4432.36  4537.24
                             4555.88  4598.85  4619.54  4640.59  4660.52

 Zero-point correction=                           0.117264 (Hartree/Particle)
 Thermal correction to Energy=                    0.122466
 Thermal correction to Enthalpy=                  0.123411
 Thermal correction to Gibbs Free Energy=         0.088395
 Sum of electronic and zero-point Energies=           -287.363246
 Sum of electronic and thermal Energies=              -287.358043
 Sum of electronic and thermal Enthalpies=            -287.357099
 Sum of electronic and thermal Free Energies=         -287.392114

                     E (Thermal)             CV                S
                      KCal/Mol        Cal/Mol-Kelvin    Cal/Mol-Kelvin
 Total                   76.849             20.101             73.696
 Electronic               0.000              0.000              0.000
 Translational            0.889              2.981             39.504
 Rotational               0.889              2.981             26.860
 Vibrational             75.071             14.139              7.333
 Vibration     1          0.638              1.839              2.128
 Vibration     2          0.733              1.558              1.129
 Vibration     3          0.780              1.435              0.905
 Vibration     4          0.837              1.294              0.709
 Vibration     5          0.911              1.128              0.533

 Optimization completed.
    -- Stationary point found.

 1\1\GINC-KATANA3\Freq\RM062X\6-31+G(d)\C6H7N1\Z5358697\21-Mar-2025\0\\
 #N Geom=AllCheck Guess=TCheck SCRF=Check GenChk RM062X/6-31+G(d) Freq\
 \2-methylpyridine\\0,1\C,0.9816001045,-2.1491484348,4.7703046544\C,0.7
 515506878,-1.5140494154,3.4253669158\C,1.619679514,-0.5457780073,2.910
 79737\C,1.3570817469,0.0063877243,1.6609168746\C,0.2349040377,-0.42462
 40391,0.9615264345\C,-0.5715882795,-1.3942065153,1.5558451251\N,-0.329
 5482786,-1.9297732489,2.7521978569\H,1.0992530507,-3.2313403578,4.6576
 679363\H,1.8714526813,-1.7463943142,5.2607227923\H,0.1144540121,-1.980

 Normal termination of Gaussian 09 at Fri Mar 21 13:29:08 2025.
