 Gaussian 09, Revision D.01,
 Gaussian 09:  ES64L-G09RevD.01 24-Apr-2013

 ---------------------------------
 #m062X/6-31+G(d) OPT Freq=noraman
 ---------------------------------

 ----------------
 2-chloropyridine
 ----------------
 Symbolic Z-matrix:
 Charge =  0 Multiplicity = 1

 SCF Done:  E(RM062X) =  -707.750317574     A.U. after   15 cycles
 SCF Done:  E(RM062X) =  -707.751946613     A.U. after   12 cycles
 SCF Done:  E(RM062X) =  -707.752163856     A.U. after   12 cycles
 SCF Done:  E(RM062X) =  -707.752174921     A.U. after   10 cycles
 SCF Done:  E(RM062X) =  -707.752177190     A.U. after   10 cycles
 Optimization completed.
    -- Stationary point found.
 Normal termination of Gaussian 09 at Sat Mar 15 12:48:25 2025.

 ---------------------------------------------------------------------
 #N Geom=AllCheck Guess=TCheck SCRF=Check GenChk RM062X/6-31+G(d) Freq
 ---------------------------------------------------------------------

 Structure from the checkpoint file:  "/srv/scratch/z5358697/gauss/Gau-997260.chk"
 ----------------
 2-chloropyridine
 ----------------
 Charge =  0 Multiplicity = 1

                         Standard orientation:
 ---------------------------------------------------------------------
 Center     Atomic      Atomic             Coordinates (Angstroms)
 Number     Number       Type             X           Y           Z
 ---------------------------------------------------------------------
      1          6           0       -1.583617    1.176780   -0.000070
      2          6           0       -2.231802   -0.057389   -0.000101
      3          6           0       -1.451356   -1.208700   -0.000184
      4          7           0       -0.113641   -1.193627    0.000188
      5          6           0        0.472669   -0.014384    0.000517
      6          6           0       -0.195051    1.211452    0.000131
      7         17           0        2.220236   -0.012501   -0.000156
      8          1           0       -2.151117    2.102759   -0.000194
      9          1           0       -3.314084   -0.128668   -0.000170
     10          1           0       -1.909967   -2.194190   -0.000063
     11          1           0        0.361578    2.141443    0.000001
 ---------------------------------------------------------------------

 SCF Done:  E(RM062X) =  -707.752177190     A.U. after    1 cycles

 The electronic state is 1-A.
 Alpha  occ. eigenvalues -- -102.67101 -14.78546 -10.65785 -10.60840 -10.59355
 Alpha  occ. eigenvalues --  -10.58560 -10.57990  -9.81827  -7.54226  -7.53571
 Alpha  occ. eigenvalues --   -7.53536  -1.09125  -0.96144  -0.92877  -0.85647
 Alpha  occ. eigenvalues --   -0.74267  -0.71741  -0.61678  -0.57882  -0.55654
 Alpha  occ. eigenvalues --   -0.51254  -0.50904  -0.49288  -0.44931  -0.41036
 Alpha  occ. eigenvalues --   -0.38270  -0.36419  -0.34960  -0.31906
 Alpha virt. eigenvalues --   -0.01382  -0.00371   0.01181   0.02726   0.02994
 Alpha virt. eigenvalues --    0.04407   0.05627   0.06004   0.06430   0.07843
 Alpha virt. eigenvalues --    0.08594   0.09824   0.10420   0.10880   0.12000

 Mulliken charges:
               1
     1  C   -0.431071
     2  C    0.011530
     3  C   -0.265904
     4  N   -0.052302
     5  C   -0.345320
     6  C    0.164409
     7  Cl   0.015053
     8  H    0.226270
     9  H    0.223735
    10  H    0.213965
    11  H    0.239634
 Sum of Mulliken charges =   0.00000

 Dipole moment (field-independent basis, Debye):
    X=             -3.0650    Y=              1.9055    Z=             -0.0002  Tot=              3.6090
 Quadrupole moment (field-independent basis, Debye-Ang):
   XX=            -43.2743   YY=            -45.0595   ZZ=            -49.9688
   XY=              1.4212   XZ=             -0.0002   YZ=             -0.0003

  Exact polarizability:  99.909   1.381  74.672   0.003   0.000  41.113
 Approx polarizability: 119.858   1.664  99.685   0.006   0.001  51.280

                      1                      2                      3
                      A                      A                      A
 Frequencies --    181.1649               317.0234               419.4156
 Red. masses --      5.4188                 6.8334                 3.4616
 Frc consts  --      0.1048                 0.4046                 0.3588
 IR Inten    --      0.8690                 0.9488                 4.4414

                      4                      5                      6
                      A                      A                      A
 Frequencies --    436.2953               492.0965               626.4270
 Red. masses --     13.9091                 3.1206                 7.2809
 Frc consts  --      1.5600                 0.4452                 1.6834
 IR Inten    --      5.8009                 4.1632                 1.9773

                      7                      8                      9
                      A                      A                      A
 Frequencies --    750.9151               751.3355               785.4549
 Red. masses --      6.8512                 3.4637                 1.3996
 Frc consts  --      2.2761                 1.1520                 0.5088
 IR Inten    --     35.1031                 2.5479                62.1425

                     10                     11                     12
                      A                      A                      A
 Frequencies --    908.1212               992.3774              1017.8381
 Red. masses --      1.2909                 1.4054                 7.1898
 Frc consts  --      0.6272                 0.8154                 4.3886
 IR Inten    --      0.4709                 0.1507                11.0203

                     13                     14                     15
                      A                      A                      A
 Frequencies --   1028.8009              1085.5795              1121.9158
 Red. masses --      1.3195                 2.5327                 1.5855
 Frc consts  --      0.8228                 1.7586                 1.1758
 IR Inten    --      0.0198                 9.5457                15.7314

                     16                     17                     18
                      A                      A                      A
 Frequencies --   1168.9940              1176.7130              1316.7323
 Red. masses --      2.5657                 1.1701                 5.7933
 Frc consts  --      2.0658                 0.9546                 5.9180
 IR Inten    --     91.7137                 1.5318                 0.5881

                     19                     20                     21
                      A                      A                      A
 Frequencies --   1332.5929              1473.9732              1515.5970
 Red. masses --      1.4214                 2.3274                 2.2074
 Frc consts  --      1.4872                 2.9792                 2.9874
 IR Inten    --      0.8847                68.2322                53.4699

                     22                     23                     24
                      A                      A                      A
 Frequencies --   1669.0833              1670.7190              3213.8189
 Red. masses --      5.9416                 7.0301                 1.0896
 Frc consts  --      9.7524                11.5616                 6.6305
 IR Inten    --     82.9529                38.3142                 8.5193

                     25                     26                     27
                      A                      A                      A
 Frequencies --   3226.1120              3244.0279              3254.0862
 Red. masses --      1.0906                 1.0967                 1.0970
 Frc consts  --      6.6875                 6.7999                 6.8440
 IR Inten    --      6.2874                 6.3380                 0.3803

 - Thermochemistry -
 -------------------
 Temperature   298.150 Kelvin.  Pressure   1.00000 Atm.
 Atom     1 has atomic number  6 and mass  12.00000

 Molecular mass:   113.00323 amu.
 Principal axes and moments of inertia in atomic units:
                           1         2         3
     Eigenvalues --   305.934891105.770051411.70490
           X            0.99999   0.00327   0.00000
           Y           -0.00327   0.99999   0.00000
           Z            0.00000   0.00000   1.00000
 This molecule is an asymmetric top.
 Rotational symmetry number  1.
 Rotational temperatures (Kelvin)      0.28311     0.07833     0.06135
 Rotational constants (GHZ):           5.89910     1.63211     1.27841
 Zero-point vibrational energy     210406.4 (Joules/Mol)
                                   50.28835 (Kcal/Mol)
 Warning -- explicit consideration of   5 degrees of freedom as
           vibrations may cause significant error
 Vibrational temperatures:    260.66   456.13   603.44   627.73   708.02
          (Kelvin)            901.29  1080.40  1081.00  1130.09  1306.58
                             1427.81  1464.44  1480.21  1561.90  1614.18
                             1681.92  1693.03  1894.48  1917.30  2120.72
                             2180.60  2401.44  2403.79  4623.96  4641.65
                             4667.43  4681.90

 Zero-point correction=                           0.080140 (Hartree/Particle)
 Thermal correction to Energy=                    0.085455
 Thermal correction to Enthalpy=                  0.086399
 Thermal correction to Gibbs Free Energy=         0.050467
 Sum of electronic and zero-point Energies=           -707.672038
 Sum of electronic and thermal Energies=              -707.666723
 Sum of electronic and thermal Enthalpies=            -707.665778
 Sum of electronic and thermal Free Energies=         -707.701710

                     E (Thermal)             CV                S
                      KCal/Mol        Cal/Mol-Kelvin    Cal/Mol-Kelvin
 Total                   53.624             19.764             75.624
 Electronic               0.000              0.000              0.000
 Translational            0.889              2.981             40.082
 Rotational               0.889              2.981             27.659
 Vibrational             51.846             13.802              7.883
 Vibration     1          0.630              1.865              2.316
 Vibration     2          0.704              1.641              1.325
 Vibration     3          0.782              1.428              0.894
 Vibration     4          0.797              1.391              0.838
 Vibration     5          0.848              1.268              0.678

 Optimization completed.
    -- Stationary point found.
 Normal termination of Gaussian 09 at Sat Mar 15 12:51:13 2025.
