 Gaussian 09, Revision D.01,
 Gaussian 09:  ES64L-G09RevD.01 24-Apr-2013

 ---------------------------------
 #m062X/6-31+G(d) OPT Freq=noraman
 ---------------------------------

 --------------
 propanenitrile
 --------------
 Symbolic Z-matrix:
 Charge =  0 Multiplicity = 1

 SCF Done:  E(RM062X) =  -171.986833165     A.U. after   11 cycles
 SCF Done:  E(RM062X) =  -171.989796990     A.U. after   11 cycles
 SCF Done:  E(RM062X) =  -171.990171725     A.U. after   11 cycles
 SCF Done:  E(RM062X) =  -171.990230457     A.U. after   10 cycles
 SCF Done:  E(RM062X) =  -171.990232325     A.U. after    9 cycles
 SCF Done:  E(RM062X) =  -171.990233200     A.U. after    8 cycles
 SCF Done:  E(RM062X) =  -171.990233559     A.U. after    7 cycles
 Optimization completed.
    -- Stationary point found.

 1\1\GINC-KATANA1\FOpt\RM062X\6-31+G(d)\C3H5N1\Z5358697\19-Mar-2025\0\\
 #m062X/6-31+G(d) OPT Freq=noraman\\propanenitrile\\0,1\C,0.6234402308,
 -0.7510154083,0.4247781608\C,1.2007653965,-0.2313512114,1.7464550107\C
 ,2.0637739488,-1.2274292642,2.3945223038\N,2.7396372889,-2.0244912032,
 2.8888688342\H,-0.0128621974,0.0146549736,-0.0264121919\H,1.4226546674
 ,-0.9968364874,-0.2785986614\H,0.0224567127,-1.6486158067,0.5894472342
 \H,0.3997824526,0.0279368175,2.4461158037\H,1.7935514996,0.6743475901,
 1.5832235058\\Version=ES64L-G09RevD.01\State=1-A\HF=-171.9902336\RMSD=

 Normal termination of Gaussian 09 at Wed Mar 19 12:28:09 2025.

 ---------------------------------------------------------------------
 #N Geom=AllCheck Guess=TCheck SCRF=Check GenChk RM062X/6-31+G(d) Freq
 ---------------------------------------------------------------------

 Structure from the checkpoint file:  "/srv/scratch/z5358697/gauss/Gau-3224823.chk"
 --------------
 propanenitrile
 --------------
 Charge =  0 Multiplicity = 1

                         Standard orientation:
 ---------------------------------------------------------------------
 Center     Atomic      Atomic             Coordinates (Angstroms)
 Number     Number       Type             X           Y           Z
 ---------------------------------------------------------------------
      1          6           0        1.545141   -0.454380    0.000029
      2          6           0        0.489742    0.657519    0.000043
      3          6           0       -0.875033    0.114992   -0.000087
      4          7           0       -1.941493   -0.331259    0.000038
      5          1           0        2.545425   -0.013775   -0.001454
      6          1           0        1.445091   -1.085354    0.886467
      7          1           0        1.443351   -1.086804   -0.885218
      8          1           0        0.598744    1.297949   -0.881035
      9          1           0        0.598735    1.298016    0.881073
 ---------------------------------------------------------------------

 SCF Done:  E(RM062X) =  -171.990233559     A.U. after    1 cycles

 The electronic state is 1-A.
 Alpha  occ. eigenvalues --  -14.76898 -10.60499 -10.59317 -10.56894  -1.01701
 Alpha  occ. eigenvalues --   -0.90927  -0.76502  -0.59579  -0.56203  -0.50063
 Alpha  occ. eigenvalues --   -0.46949  -0.45805  -0.43514  -0.39409  -0.39306
 Alpha virt. eigenvalues --    0.00934   0.02977   0.04090   0.04901   0.06952
 Alpha virt. eigenvalues --    0.07251   0.08174   0.08571   0.08934   0.10120
 Alpha virt. eigenvalues --    0.10404   0.12925   0.13337   0.15224   0.21075

 Mulliken charges:
               1
     1  C   -0.675057
     2  C   -0.456368
     3  C    0.390946
     4  N   -0.463049
     5  H    0.221926
     6  H    0.232790
     7  H    0.232767
     8  H    0.258014
     9  H    0.258030
 Sum of Mulliken charges =   0.00000

 Dipole moment (field-independent basis, Debye):
    X=              3.8698    Y=              1.3398    Z=             -0.0001  Tot=              4.0952
 Quadrupole moment (field-independent basis, Debye-Ang):
   XX=            -31.3106   YY=            -24.1969   ZZ=            -24.2068
   XY=             -1.2750   XZ=             -0.0001   YZ=              0.0000

  Exact polarizability:  48.264   4.259  33.603  -0.001   0.000  30.180
 Approx polarizability:  54.689   8.498  38.054  -0.002  -0.001  34.326

                      1                      2                      3
                      A                      A                      A
 Frequencies --    188.5838               211.6284               392.5400
 Red. masses --      1.1453                 3.9783                 2.9707
 Frc consts  --      0.0240                 0.1050                 0.2697
 IR Inten    --      0.8190                 4.0333                 0.1728

                      4                      5                      6
                      A                      A                      A
 Frequencies --    553.8785               783.8831               854.3868
 Red. masses --      4.8414                 1.1896                 2.8103
 Frc consts  --      0.8751                 0.4307                 1.2087
 IR Inten    --      1.0724                 3.4460                 0.2786

                      7                      8                      9
                      A                      A                      A
 Frequencies --   1038.0537              1103.2686              1120.1671
 Red. masses --      2.2890                 1.9091                 1.5200
 Frc consts  --      1.4532                 1.3692                 1.1237
 IR Inten    --      1.0563                 4.6935                 0.3956

                     10                     11                     12
                      A                      A                      A
 Frequencies --   1293.4050              1358.1251              1433.4710
 Red. masses --      1.1442                 1.4999                 1.2271
 Frc consts  --      1.1278                 1.6300                 1.4856
 IR Inten    --      0.0003                 2.9370                 2.5334

                     13                     14                     15
                      A                      A                      A
 Frequencies --   1493.6714              1516.6311              1524.0505
 Red. masses --      1.0761                 1.0368                 1.0522
 Frc consts  --      1.4145                 1.4051                 1.4399
 IR Inten    --      5.6418                 9.2247                 7.0737

                     16                     17                     18
                      A                      A                      A
 Frequencies --   2417.1105              3089.1849              3101.4067
 Red. masses --     12.6257                 1.0355                 1.0594
 Frc consts  --     43.4610                 5.8221                 6.0039
 IR Inten    --     11.6095                15.6304                 5.8225

                     19                     20                     21
                      A                      A                      A
 Frequencies --   3142.1215              3170.8864              3176.1059
 Red. masses --      1.1039                 1.1032                 1.1044
 Frc consts  --      6.4211                 6.5354                 6.5639
 IR Inten    --      0.1503                13.5412                13.0275

 - Thermochemistry -
 -------------------
 Temperature   298.150 Kelvin.  Pressure   1.00000 Atm.
 Atom     1 has atomic number  6 and mass  12.00000

 Molecular mass:    55.04220 amu.
 Principal axes and moments of inertia in atomic units:
                           1         2         3
     Eigenvalues --    65.17386 383.32312 426.02514
           X            0.99985  -0.01749   0.00000
           Y            0.01749   0.99985   0.00001
           Z            0.00000  -0.00001   1.00000
 This molecule is an asymmetric top.
 Rotational symmetry number  1.
 Rotational temperatures (Kelvin)      1.32897     0.22596     0.20331
 Rotational constants (GHZ):          27.69118     4.70815     4.23623
 Zero-point vibrational energy     197159.9 (Joules/Mol)
                                   47.12234 (Kcal/Mol)
 Warning -- explicit consideration of   4 degrees of freedom as
           vibrations may cause significant error
 Vibrational temperatures:    271.33   304.49   564.78   796.91  1127.83
          (Kelvin)           1229.27  1493.53  1587.36  1611.67  1860.92
                             1954.04  2062.44  2149.06  2182.09  2192.77
                             3477.68  4444.64  4462.23  4520.81  4562.19
                             4569.70

 Zero-point correction=                           0.075094 (Hartree/Particle)
 Thermal correction to Energy=                    0.079820
 Thermal correction to Enthalpy=                  0.080764
 Thermal correction to Gibbs Free Energy=         0.048311
 Sum of electronic and zero-point Energies=           -171.915139
 Sum of electronic and thermal Energies=              -171.910414
 Sum of electronic and thermal Enthalpies=            -171.909469
 Sum of electronic and thermal Free Energies=         -171.941922

                     E (Thermal)             CV                S
                      KCal/Mol        Cal/Mol-Kelvin    Cal/Mol-Kelvin
 Total                   50.088             14.965             68.302
 Electronic               0.000              0.000              0.000
 Translational            0.889              2.981             37.938
 Rotational               0.889              2.981             23.880
 Vibrational             48.310              9.003              6.484
 Vibration     1          0.633              1.856              2.242
 Vibration     2          0.643              1.823              2.030
 Vibration     3          0.760              1.486              0.990
 Vibration     4          0.909              1.131              0.536

 Optimization completed.
    -- Stationary point found.

 1\1\GINC-KATANA1\Freq\RM062X\6-31+G(d)\C3H5N1\Z5358697\19-Mar-2025\0\\
 #N Geom=AllCheck Guess=TCheck SCRF=Check GenChk RM062X/6-31+G(d) Freq\
 \propanenitrile\\0,1\C,0.6234402308,-0.7510154083,0.4247781608\C,1.200
 7653965,-0.2313512114,1.7464550107\C,2.0637739488,-1.2274292642,2.3945
 223038\N,2.7396372889,-2.0244912032,2.8888688342\H,-0.0128621974,0.014
 6549736,-0.0264121919\H,1.4226546674,-0.9968364874,-0.2785986614\H,0.0
 224567127,-1.6486158067,0.5894472342\H,0.3997824526,0.0279368175,2.446
 1158037\H,1.7935514996,0.6743475901,1.5832235058\\Version=ES64L-G09Rev

 Normal termination of Gaussian 09 at Wed Mar 19 12:28:55 2025.
