 Gaussian 09, Revision D.01,
 Gaussian 09:  ES64L-G09RevD.01 24-Apr-2013

 ---------------------------------
 #m062X/6-31+G(d) OPT Freq=noraman
 ---------------------------------

 --------------------------------
 6-chloro-1H-pyrimidine-2,4-dione
 --------------------------------
 Symbolic Z-matrix:
 Charge =  0 Multiplicity = 1

 SCF Done:  E(RM062X) =  -874.230460422     A.U. after   15 cycles
 SCF Done:  E(RM062X) =  -874.233557948     A.U. after   12 cycles
 SCF Done:  E(RM062X) =  -874.233768308     A.U. after   11 cycles
 SCF Done:  E(RM062X) =  -874.233820591     A.U. after   10 cycles
 SCF Done:  E(RM062X) =  -874.233819358     A.U. after   11 cycles
 SCF Done:  E(RM062X) =  -874.233823453     A.U. after    9 cycles
 Optimization completed.
    -- Stationary point found.
 Normal termination of Gaussian 09 at Sun Mar 16 21:27:56 2025.

 ---------------------------------------------------------------------
 #N Geom=AllCheck Guess=TCheck SCRF=Check GenChk RM062X/6-31+G(d) Freq
 ---------------------------------------------------------------------

 Structure from the checkpoint file:  "/srv/scratch/z5358697/gauss/Gau-3717144.chk"
 --------------------------------
 6-chloro-1H-pyrimidine-2,4-dione
 --------------------------------
 Charge =  0 Multiplicity = 1

                         Standard orientation:
 ---------------------------------------------------------------------
 Center     Atomic      Atomic             Coordinates (Angstroms)
 Number     Number       Type             X           Y           Z
 ---------------------------------------------------------------------
      1          6           0        0.240525   -1.283058   -0.000001
      2          6           0       -1.219600   -1.215889    0.000025
      3          8           0       -1.965741   -2.171953   -0.000007
      4          7           0       -1.736341    0.090706    0.000004
      5          6           0       -1.033898    1.276530   -0.000052
      6          8           0       -1.543339    2.374582    0.000024
      7          7           0        0.347678    1.098607   -0.000002
      8          6           0        0.944059   -0.137413   -0.000008
      9         17           0        2.666927   -0.097413    0.000004
     10          1           0        0.714638   -2.254272   -0.000013
     11          1           0       -2.747932    0.176895    0.000011
     12          1           0        0.902311    1.946154   -0.000009
 ---------------------------------------------------------------------

 SCF Done:  E(RM062X) =  -874.233823453     A.U. after    1 cycles

 The electronic state is 1-A.
 Alpha  occ. eigenvalues -- -102.72345 -19.65260 -19.64669 -14.85852 -14.83745
 Alpha  occ. eigenvalues --  -10.73280 -10.70883 -10.69758 -10.59241  -9.87024
 Alpha  occ. eigenvalues --   -7.59453  -7.58740  -7.58725  -1.22915  -1.19426
 Alpha  occ. eigenvalues --   -1.12967  -1.06516  -1.00457  -0.90903  -0.78718
 Alpha  occ. eigenvalues --   -0.77050  -0.70406  -0.66742  -0.60452  -0.59039
 Alpha  occ. eigenvalues --   -0.57151  -0.55287  -0.52389  -0.51629  -0.50633
 Alpha  occ. eigenvalues --   -0.49906  -0.43687  -0.41393  -0.39759  -0.37066
 Alpha  occ. eigenvalues --   -0.36155  -0.32523
 Alpha virt. eigenvalues --   -0.02885  -0.00514   0.01254   0.02057   0.02455
 Alpha virt. eigenvalues --    0.03144   0.03540   0.05250   0.05815   0.06437
 Alpha virt. eigenvalues --    0.07844   0.08800   0.09672   0.10519   0.10963

 Mulliken charges:
               1
     1  C    0.099270
     2  C    0.307838
     3  O   -0.493355
     4  N   -0.747697
     5  C    0.781395
     6  O   -0.506839
     7  N   -0.586701
     8  C   -0.164696
     9  Cl   0.092059
    10  H    0.262325
    11  H    0.476406
    12  H    0.479995
 Sum of Mulliken charges =   0.00000

 Dipole moment (field-independent basis, Debye):
    X=              3.1131    Y=              0.7886    Z=             -0.0001  Tot=              3.2115
 Quadrupole moment (field-independent basis, Debye-Ang):
   XX=            -58.1875   YY=            -69.0494   ZZ=            -58.4617
   XY=             -0.2855   XZ=              0.0001   YZ=             -0.0003

  Exact polarizability:  95.926   6.357  93.256   0.000   0.000  41.559
 Approx polarizability: 108.585  12.429 118.590   0.000   0.001  52.777

                      1                      2                      3
                      A                      A                      A
 Frequencies --    124.3592               155.1299               172.5507
 Red. masses --     14.7300                 6.5014                 6.1684
 Frc consts  --      0.1342                 0.0922                 0.1082
 IR Inten    --      0.2746                 0.9225                 0.1319

                      4                      5                      6
                      A                      A                      A
 Frequencies --    246.4274               370.8046               426.7081
 Red. masses --     13.5740                19.1016                 9.7731
 Frc consts  --      0.4857                 1.5474                 1.0484
 IR Inten    --      3.3876                 3.4027                32.6705

                      7                      8                      9
                      A                      A                      A
 Frequencies --    472.5100               522.6090               580.6672
 Red. masses --      1.3408                 8.5903                 2.6694
 Frc consts  --      0.1764                 1.3823                 0.5303
 IR Inten    --     67.1978                17.5708                 0.1596

                     10                     11                     12
                      A                      A                      A
 Frequencies --    588.5707               608.6036               659.9478
 Red. masses --      6.0033                 8.1446                 1.2786
 Frc consts  --      1.2253                 1.7774                 0.3281
 IR Inten    --      6.5802                 0.2755               107.3576

                     13                     14                     15
                      A                      A                      A
 Frequencies --    718.4725               740.3445               814.1530
 Red. masses --      2.2229                10.6201                 1.8977
 Frc consts  --      0.6761                 3.4296                 0.7411
 IR Inten    --      2.3209                65.6525                35.5617

                     16                     17                     18
                      A                      A                      A
 Frequencies --    913.6396              1004.3171              1023.7882
 Red. masses --      7.0852                 7.2711                 2.5527
 Frc consts  --      3.4846                 4.3211                 1.5764
 IR Inten    --     10.9688                67.4080                22.3586

                     19                     20                     21
                      A                      A                      A
 Frequencies --   1129.1544              1243.7976              1331.3331
 Red. masses --      1.8188                 2.7801                 1.8447
 Frc consts  --      1.3663                 2.5340                 1.9265
 IR Inten    --     26.8272                16.8334                20.4863

                     22                     23                     24
                      A                      A                      A
 Frequencies --   1426.4859              1435.8102              1522.1729
 Red. masses --      1.7149                 5.1305                 3.0180
 Frc consts  --      2.0560                 6.2317                 4.1200
 IR Inten    --      3.3442               202.9704               274.4788

                     25                     26                     27
                      A                      A                      A
 Frequencies --   1704.6820              1840.8994              1866.6463
 Red. masses --      8.3453                 8.6605                 9.7456
 Frc consts  --     14.2882                17.2924                20.0070
 IR Inten    --    262.7086              1009.8516               608.5376

                     28                     29                     30
                      A                      A                      A
 Frequencies --   3276.6033              3608.4833              3651.9495
 Red. masses --      1.0955                 1.0781                 1.0795
 Frc consts  --      6.9297                 8.2710                 8.4826
 IR Inten    --     13.0902                97.1880               141.0811

 - Thermochemistry -
 -------------------
 Temperature   298.150 Kelvin.  Pressure   1.00000 Atm.
 Atom     1 has atomic number  6 and mass  12.00000

 Molecular mass:   145.98831 amu.
 Principal axes and moments of inertia in atomic units:
                           1         2         3
     Eigenvalues --   890.045561583.579322473.62488
           X            1.00000  -0.00043   0.00000
           Y            0.00043   1.00000   0.00000
           Z            0.00000   0.00000   1.00000
 This molecule is an asymmetric top.
 Rotational symmetry number  1.
 Warning -- assumption of classical behavior for rotation
           may cause significant error
 Rotational temperatures (Kelvin)      0.09731     0.05469     0.03501
 Rotational constants (GHZ):           2.02770     1.13966     0.72959
 Zero-point vibrational energy     204451.5 (Joules/Mol)
                                   48.86508 (Kcal/Mol)
 Warning -- explicit consideration of  11 degrees of freedom as
           vibrations may cause significant error
 Vibrational temperatures:    178.92   223.20   248.26   354.55   533.50
          (Kelvin)            613.94   679.84   751.92   835.45   846.82
                              875.64   949.52  1033.72  1065.19  1171.38
                             1314.52  1444.99  1473.00  1624.60  1789.55
                             1915.49  2052.39  2065.81  2190.06  2452.65
                             2648.64  2685.68  4714.30  5191.80  5254.33

 Zero-point correction=                           0.077871 (Hartree/Particle)
 Thermal correction to Energy=                    0.085289
 Thermal correction to Enthalpy=                  0.086233
 Thermal correction to Gibbs Free Energy=         0.045121
 Sum of electronic and zero-point Energies=           -874.155952
 Sum of electronic and thermal Energies=              -874.148534
 Sum of electronic and thermal Enthalpies=            -874.147590
 Sum of electronic and thermal Free Energies=         -874.188703

                     E (Thermal)             CV                S
                      KCal/Mol        Cal/Mol-Kelvin    Cal/Mol-Kelvin
 Total                   53.520             27.225             86.528
 Electronic               0.000              0.000              0.000
 Translational            0.889              2.981             40.846
 Rotational               0.889              2.981             29.635
 Vibrational             51.742             21.263             16.048
 Vibration     1          0.610              1.929              3.031
 Vibration     2          0.620              1.897              2.608
 Vibration     3          0.626              1.876              2.408
 Vibration     4          0.661              1.769              1.756
 Vibration     5          0.743              1.532              1.076
 Vibration     6          0.788              1.412              0.869
 Vibration     7          0.829              1.311              0.731
 Vibration     8          0.878              1.200              0.604
 Vibration     9          0.937              1.073              0.484
 Vibration    10          0.946              1.056              0.470
 Vibration    11          0.967              1.014              0.435

 Optimization completed.
    -- Stationary point found.
 Normal termination of Gaussian 09 at Sun Mar 16 21:32:45 2025.
