 Gaussian 09, Revision D.01,
 Gaussian 09:  ES64L-G09RevD.01 24-Apr-2013

 -------------------------------
 #m062X/def2SVP OPT Freq=noraman
 -------------------------------

 -----------
 iodomethane
 -----------
 Symbolic Z-matrix:
 Charge =  0 Multiplicity = 1

 SCF Done:  E(RM062X) =  -337.471181163     A.U. after   14 cycles
 SCF Done:  E(RM062X) =  -337.472163846     A.U. after   12 cycles
 SCF Done:  E(RM062X) =  -337.472384750     A.U. after   12 cycles
 SCF Done:  E(RM062X) =  -337.472379755     A.U. after    8 cycles
 Optimization completed.
    -- Stationary point found.
 Normal termination of Gaussian 09 at Fri Mar 14 09:27:02 2025.

 -------------------------------------------------------------------
 #N Geom=AllCheck Guess=TCheck SCRF=Check GenChk RM062X/def2SVP Freq
 -------------------------------------------------------------------

 Structure from the checkpoint file:  "/srv/scratch/z5358697/gauss/Gau-1739315.chk"
 -----------
 iodomethane
 -----------
 Charge =  0 Multiplicity = 1

                         Standard orientation:
 ---------------------------------------------------------------------
 Center     Atomic      Atomic             Coordinates (Angstroms)
 Number     Number       Type             X           Y           Z
 ---------------------------------------------------------------------
      1          6           0       -1.816992   -0.000047   -0.000027
      2         53           0        0.327370   -0.000002    0.000006
      3          1           0       -2.149917    0.314074    0.992495
      4          1           0       -2.149105    0.703062   -0.768093
      5          1           0       -2.149655   -1.016771   -0.224535
 ---------------------------------------------------------------------

 SCF Done:  E(RM062X) =  -337.472379755     A.U. after    1 cycles

 The electronic state is 1-A.
 Alpha  occ. eigenvalues --  -10.60373  -7.09294  -5.08934  -5.07516  -5.07516
 Alpha  occ. eigenvalues --   -2.05761  -2.05257  -2.05256  -2.04090  -2.04089
 Alpha  occ. eigenvalues --   -0.84159  -0.72244  -0.50612  -0.50604  -0.41036
 Alpha  occ. eigenvalues --   -0.30751  -0.30749
 Alpha virt. eigenvalues --    0.00904   0.11274   0.15594   0.15595   0.33791
 Alpha virt. eigenvalues --    0.38282   0.38286   0.41529   0.45699   0.45718
 Alpha virt. eigenvalues --    0.49054   0.49056   0.52966   0.62323   0.62340

 Mulliken charges:
               1
     1  C   -0.282994
     2  I   -0.060157
     3  H    0.114344
     4  H    0.114381
     5  H    0.114427
 Sum of Mulliken charges =   0.00000

 Dipole moment (field-independent basis, Debye):
    X=             -1.6739    Y=              0.0014    Z=             -0.0010  Tot=              1.6739
 Quadrupole moment (field-independent basis, Debye-Ang):
   XX=            -29.2824   YY=            -34.5915   ZZ=            -34.5946
   XY=             -0.0003   XZ=             -0.0006   YZ=             -0.0001

  Exact polarizability:  48.795   0.010  26.276  -0.033   0.018  26.265
 Approx polarizability:  59.251   0.002  33.164  -0.004   0.001  33.160

                      1                      2                      3
                      A                      A                      A
 Frequencies --    574.3667               895.0345               899.6567
 Red. masses --      5.0835                 1.1272                 1.1260
 Frc consts  --      0.9881                 0.5320                 0.5369
 IR Inten    --      3.3384                10.1391                 9.7762

                      4                      5                      6
                      A                      A                      A
 Frequencies --   1274.9754              1447.8049              1448.9527
 Red. masses --      1.1498                 1.0612                 1.0598
 Frc consts  --      1.1012                 1.3105                 1.3110
 IR Inten    --     33.5777                 7.9607                 7.9076

                      7                      8                      9
                      A                      A                      A
 Frequencies --   3106.5825              3241.1035              3243.4869
 Red. masses --      1.0267                 1.1111                 1.1112
 Frc consts  --      5.8377                 6.8768                 6.8876
 IR Inten    --      7.4939                 0.2944                 0.1984

 - Thermochemistry -
 -------------------
 Temperature   298.150 Kelvin.  Pressure   1.00000 Atm.
 Atom     1 has atomic number  6 and mass  12.00000

 Molecular mass:   141.92388 amu.
 Principal axes and moments of inertia in atomic units:
                           1         2         3
     Eigenvalues --    11.70466 241.37124 241.37604
           X            1.00000  -0.00001  -0.00001
           Y            0.00001   1.00000   0.00000
           Z            0.00001   0.00000   1.00000
 This molecule is an asymmetric top.
 Rotational symmetry number  1.
 Rotational temperatures (Kelvin)      7.39994     0.35884     0.35883
 Rotational constants (GHZ):         154.18991     7.47703     7.47689
 Zero-point vibrational energy      96490.6 (Joules/Mol)
                                   23.06180 (Kcal/Mol)
 Warning -- explicit consideration of   1 degrees of freedom as
           vibrations may cause significant error
 Vibrational temperatures:    826.38  1287.75  1294.40  1834.40  2083.07
          (Kelvin)           2084.72  4469.67  4663.22  4666.65

 Zero-point correction=                           0.036751 (Hartree/Particle)
 Thermal correction to Energy=                    0.039892
 Thermal correction to Enthalpy=                  0.040836
 Thermal correction to Gibbs Free Energy=         0.011022
 Sum of electronic and zero-point Energies=           -337.435628
 Sum of electronic and thermal Energies=              -337.432488
 Sum of electronic and thermal Enthalpies=            -337.431543
 Sum of electronic and thermal Free Energies=         -337.461358

                     E (Thermal)             CV                S
                      KCal/Mol        Cal/Mol-Kelvin    Cal/Mol-Kelvin
 Total                   25.033              8.396             62.749
 Electronic               0.000              0.000              0.000
 Translational            0.889              2.981             40.762
 Rotational               0.889              2.981             21.150
 Vibrational             23.255              2.434              0.838
 Vibration     1          0.931              1.087              0.496

 Optimization completed.
    -- Stationary point found.
 Normal termination of Gaussian 09 at Fri Mar 14 09:27:18 2025.
