 Gaussian 09, Revision D.01,
 Gaussian 09:  ES64L-G09RevD.01 24-Apr-2013

 ---------------------------------
 #m062X/6-31+G(d) OPT Freq=noraman
 ---------------------------------

 -------------
 chloromethane
 -------------
 Symbolic Z-matrix:
 Charge =  0 Multiplicity = 1

 SCF Done:  E(RM062X) =  -500.047117820     A.U. after   10 cycles
 SCF Done:  E(RM062X) =  -500.047248626     A.U. after    8 cycles
 SCF Done:  E(RM062X) =  -500.047259808     A.U. after    9 cycles
 SCF Done:  E(RM062X) =  -500.047273265     A.U. after    8 cycles
 Optimization completed.
    -- Stationary point found.
 Normal termination of Gaussian 09 at Thu Mar 20 14:17:38 2025.

 ---------------------------------------------------------------------
 #N Geom=AllCheck Guess=TCheck SCRF=Check GenChk RM062X/6-31+G(d) Freq
 ---------------------------------------------------------------------

 Structure from the checkpoint file:  "/srv/scratch/z5358697/gauss/Gau-1575760.chk"
 -------------
 chloromethane
 -------------
 Charge =  0 Multiplicity = 1

                         Standard orientation:
 ---------------------------------------------------------------------
 Center     Atomic      Atomic             Coordinates (Angstroms)
 Number     Number       Type             X           Y           Z
 ---------------------------------------------------------------------
      1          6           0        1.128238    0.000007    0.000017
      2         17           0       -0.658589   -0.000003   -0.000006
      3          1           0        1.475418    0.931604    0.444294
      4          1           0        1.475512   -0.850637    0.584494
      5          1           0        1.475662   -0.080956   -1.028783
 ---------------------------------------------------------------------

 SCF Done:  E(RM062X) =  -500.047273265     A.U. after    1 cycles

 The electronic state is 1-A.
 Alpha  occ. eigenvalues -- -102.65761 -10.60678  -9.80482  -7.52902  -7.52205
 Alpha  occ. eigenvalues --   -7.52204  -0.95344  -0.77043  -0.52386  -0.52382
 Alpha  occ. eigenvalues --   -0.47512  -0.36202  -0.36201
 Alpha virt. eigenvalues --    0.02065   0.03582   0.06256   0.06262   0.08919
 Alpha virt. eigenvalues --    0.11652   0.11656   0.12547   0.18184   0.20810
 Alpha virt. eigenvalues --    0.20812   0.28776   0.61252   0.63640   0.63642

 Mulliken charges:
               1
     1  C   -0.711123
     2  Cl  -0.028192
     3  H    0.246442
     4  H    0.246427
     5  H    0.246446
 Sum of Mulliken charges =   0.00000

 Dipole moment (field-independent basis, Debye):
    X=              2.1426    Y=              0.0004    Z=              0.0001  Tot=              2.1426
 Quadrupole moment (field-independent basis, Debye-Ang):
   XX=            -18.3411   YY=            -20.0736   ZZ=            -20.0746
   XY=             -0.0003   XZ=             -0.0003   YZ=             -0.0001

  Exact polarizability:  29.848   0.020  19.244   0.015   0.002  19.209
 Approx polarizability:  31.420   0.000  20.177  -0.001   0.000  20.174

                      1                      2                      3
                      A                      A                      A
 Frequencies --    769.6325              1047.4843              1050.7250
 Red. masses --      7.0278                 1.1734                 1.1728
 Frc consts  --      2.4526                 0.7586                 0.7629
 IR Inten    --     28.9568                 3.7877                 3.8331

                      4                      5                      6
                      A                      A                      A
 Frequencies --   1420.9766              1508.5697              1510.9078
 Red. masses --      1.1348                 1.0535                 1.0534
 Frc consts  --      1.3500                 1.4126                 1.4169
 IR Inten    --     16.9978                 6.4327                 6.4945

                      7                      8                      9
                      A                      A                      A
 Frequencies --   3122.1421              3220.8759              3227.9326
 Red. masses --      1.0280                 1.1086                 1.1090
 Frc consts  --      5.9041                 6.7762                 6.8083
 IR Inten    --     21.5629                 3.5818                 3.4962

 - Thermochemistry -
 -------------------
 Temperature   298.150 Kelvin.  Pressure   1.00000 Atm.
 Atom     1 has atomic number  6 and mass  12.00000

 Molecular mass:    49.99233 amu.
 Principal axes and moments of inertia in atomic units:
                           1         2         3
     Eigenvalues --    11.50045 136.16096 136.16312
           X            1.00000   0.00000  -0.00001
           Y            0.00000   1.00000   0.00000
           Z            0.00001   0.00000   1.00000
 This molecule is an asymmetric top.
 Rotational symmetry number  1.
 Rotational temperatures (Kelvin)      7.53134     0.63611     0.63610
 Rotational constants (GHZ):         156.92786    13.25447    13.25426
 Zero-point vibrational energy     100960.3 (Joules/Mol)
                                   24.13009 (Kcal/Mol)
 Vibrational temperatures:   1107.33  1507.09  1511.76  2044.47  2170.49
          (Kelvin)           2173.86  4492.06  4634.12  4644.27

 Zero-point correction=                           0.038454 (Hartree/Particle)
 Thermal correction to Energy=                    0.041451
 Thermal correction to Enthalpy=                  0.042395
 Thermal correction to Gibbs Free Energy=         0.014803
 Sum of electronic and zero-point Energies=           -500.008820
 Sum of electronic and thermal Energies=              -500.005822
 Sum of electronic and thermal Enthalpies=            -500.004878
 Sum of electronic and thermal Free Energies=         -500.032470

                     E (Thermal)             CV                S
                      KCal/Mol        Cal/Mol-Kelvin    Cal/Mol-Kelvin
 Total                   26.011              7.560             58.072
 Electronic               0.000              0.000              0.000
 Translational            0.889              2.981             37.651
 Rotational               0.889              2.981             19.994
 Vibrational             24.233              1.599              0.426

 Optimization completed.
    -- Stationary point found.
 Normal termination of Gaussian 09 at Thu Mar 20 14:17:48 2025.
