 Gaussian 09, Revision D.01,
 Gaussian 09:  ES64L-G09RevD.01 24-Apr-2013

 ---------------------------------
 #m062X/6-31+G(d) OPT Freq=noraman
 ---------------------------------

 ------------------------
 1-bromo-4-methyl-benzene
 ------------------------
 Symbolic Z-matrix:
 Charge =  0 Multiplicity = 1

 SCF Done:  E(RM062X) =  -2842.64649548     A.U. after   14 cycles
 SCF Done:  E(RM062X) =  -2842.64744214     A.U. after   13 cycles
 SCF Done:  E(RM062X) =  -2842.64748095     A.U. after   11 cycles
 SCF Done:  E(RM062X) =  -2842.64749321     A.U. after   11 cycles
 SCF Done:  E(RM062X) =  -2842.64749971     A.U. after   10 cycles
 Optimization completed.
    -- Stationary point found.
 Normal termination of Gaussian 09 at Fri Mar 21 14:55:56 2025.

 ---------------------------------------------------------------------
 #N Geom=AllCheck Guess=TCheck SCRF=Check GenChk RM062X/6-31+G(d) Freq
 ---------------------------------------------------------------------

 Structure from the checkpoint file:  "/srv/scratch/z5358697/gauss/Gau-2809766.chk"
 ------------------------
 1-bromo-4-methyl-benzene
 ------------------------
 Charge =  0 Multiplicity = 1

                         Standard orientation:
 ---------------------------------------------------------------------
 Center     Atomic      Atomic             Coordinates (Angstroms)
 Number     Number       Type             X           Y           Z
 ---------------------------------------------------------------------
      1          6           0       -3.953431    0.000000    0.014382
      2          6           0       -2.446249    0.000003   -0.008403
      3          6           0       -1.729404    1.199356   -0.008739
      4          6           0       -0.337003    1.209743   -0.005243
      5          6           0        0.348238   -0.000001   -0.003225
      6          6           0       -0.337007   -1.209744   -0.005242
      7          6           0       -1.729407   -1.199353   -0.008740
      8         35           0        2.235988    0.000000    0.003362
      9          1           0       -4.327389   -0.000166    1.044753
     10          1           0       -4.357547    0.885915   -0.483702
     11          1           0       -4.357549   -0.885757   -0.483984
     12          1           0       -2.266678    2.144971   -0.014601
     13          1           0        0.210921    2.146365   -0.007134
     14          1           0        0.210914   -2.146368   -0.007132
     15          1           0       -2.266682   -2.144967   -0.014602
 ---------------------------------------------------------------------

 SCF Done:  E(RM062X) =  -2842.64749971     A.U. after    2 cycles

 The electronic state is 1-A.
 Alpha  occ. eigenvalues -- -485.48200 -62.76257 -57.29354 -57.29091 -57.29053
 Alpha  occ. eigenvalues --  -10.61382 -10.57418 -10.57055 -10.57053 -10.56632
 Alpha  occ. eigenvalues --  -10.56629 -10.55399  -8.93304  -6.88688  -6.87668
 Alpha  occ. eigenvalues --   -6.87657  -2.91543  -2.91178  -2.91171  -2.90264
 Alpha  occ. eigenvalues --   -2.90264  -0.98704  -0.91308  -0.85932  -0.84668
 Alpha  occ. eigenvalues --   -0.76990  -0.70930  -0.67073  -0.58052  -0.55031
 Alpha  occ. eigenvalues --   -0.53658  -0.50369  -0.50045  -0.47179  -0.46329
 Alpha  occ. eigenvalues --   -0.45267  -0.41610  -0.41099  -0.37092  -0.34780
 Alpha  occ. eigenvalues --   -0.32077  -0.29007
 Alpha virt. eigenvalues --    0.00583   0.00663   0.00982   0.02063   0.02800
 Alpha virt. eigenvalues --    0.03030   0.04878   0.04885   0.05815   0.06016
 Alpha virt. eigenvalues --    0.06456   0.07428   0.08112   0.09455   0.10122

 Mulliken charges:
               1
     1  C   -0.809469
     2  C    0.198487
     3  C   -0.144521
     4  C   -0.363928
     5  C    0.068218
     6  C   -0.363868
     7  C   -0.144205
     8  Br   0.011053
     9  H    0.241804
    10  H    0.217436
    11  H    0.217442
    12  H    0.207760
    13  H    0.228015
    14  H    0.228015
    15  H    0.207761
 Sum of Mulliken charges =   0.00000

 Dipole moment (field-independent basis, Debye):
    X=             -2.3801    Y=              0.0000    Z=              0.0367  Tot=              2.3803
 Quadrupole moment (field-independent basis, Debye-Ang):
   XX=            -55.9427   YY=            -55.2573   ZZ=            -64.2793
   XY=              0.0001   XZ=             -0.1354   YZ=              0.0000

  Exact polarizability: 138.092   0.000  94.216  -0.456   0.000  58.851
 Approx polarizability: 155.670   0.000 129.094  -0.461   0.000  76.758

 ******    1 imaginary frequencies (negative Signs) ******

                      1                      2                      3
                      A                      A                      A
 Frequencies --   -101.5796               127.7687               220.2882
 Red. masses --      1.0354                 4.0981                 4.6519
 Frc consts  --      0.0063                 0.0394                 0.1330
 IR Inten    --      0.3748                 0.3401                 0.0441

                      4                      5                      6
                      A                      A                      A
 Frequencies --    302.1260               367.4201               382.5541
 Red. masses --      9.8653                 2.7670                 3.7028
 Frc consts  --      0.5306                 0.2201                 0.3193
 IR Inten    --      1.6119                 0.0542                 1.2289

                      7                      8                      9
                      A                      A                      A
 Frequencies --    432.6741               511.9968               608.4030
 Red. masses --      2.8196                 2.5829                 5.4232
 Frc consts  --      0.3110                 0.3989                 1.1827
 IR Inten    --      0.0059                20.9052                 7.7551

                     10                     11                     12
                      A                      A                      A
 Frequencies --    645.8176               806.8638               822.0021
 Red. masses --      6.8966                 1.6862                 3.8771
 Frc consts  --      1.6947                 0.6468                 1.5435
 IR Inten    --      0.0517                24.2836                12.5628

                     13                     14                     15
                      A                      A                      A
 Frequencies --    860.4046               864.7847              1003.2986
 Red. masses --      1.2487                 1.8332                 1.5434
 Frc consts  --      0.5447                 0.8078                 0.9154
 IR Inten    --      0.0155                18.8178                 2.5644

                     16                     17                     18
                      A                      A                      A
 Frequencies --   1005.9614              1013.3938              1033.1424
 Red. masses --      1.3886                 1.3864                 4.3198
 Frc consts  --      0.8279                 0.8389                 2.7167
 IR Inten    --      0.0006                 0.0111                26.2092

                     19                     20                     21
                      A                      A                      A
 Frequencies --   1094.6969              1123.2602              1146.1591
 Red. masses --      1.8276                 2.6230                 1.2737
 Frc consts  --      1.2904                 1.9499                 0.9858
 IR Inten    --      7.2834                26.3554                 5.7592

                     22                     23                     24
                      A                      A                      A
 Frequencies --   1216.3106              1257.1169              1335.8737
 Red. masses --      1.1078                 2.9287                 1.7052
 Frc consts  --      0.9656                 2.7269                 1.7929
 IR Inten    --      0.7750                 1.6435                 0.0336

                     25                     26                     27
                      A                      A                      A
 Frequencies --   1344.2616              1436.4293              1456.4520
 Red. masses --      3.0924                 1.2749                 2.6363
 Frc consts  --      3.2924                 1.5499                 3.2949
 IR Inten    --      0.2802                 0.7005                 2.9441

                     28                     29                     30
                      A                      A                      A
 Frequencies --   1511.4328              1515.7264              1553.2623
 Red. masses --      1.0489                 1.1103                 2.5903
 Frc consts  --      1.4117                 1.5029                 3.6821
 IR Inten    --      8.0950                12.5185                62.5972

                     31                     32                     33
                      A                      A                      A
 Frequencies --   1670.0026              1691.4860              3070.4767
 Red. masses --      6.9122                 6.3502                 1.0377
 Frc consts  --     11.3579                10.7047                 5.7644
 IR Inten    --      0.4972                 2.6724                24.0566

                     34                     35                     36
                      A                      A                      A
 Frequencies --   3134.7898              3157.5598              3199.1429
 Red. masses --      1.0996                 1.1031                 1.0904
 Frc consts  --      6.3667                 6.4798                 6.5751
 IR Inten    --     12.0714                11.2003                10.2786

                     37                     38                     39
                      A                      A                      A
 Frequencies --   3199.6239              3233.5785              3234.5335
 Red. masses --      1.0902                 1.0943                 1.0949
 Frc consts  --      6.5760                 6.7417                 6.7489
 IR Inten    --      7.8437                 2.4936                 0.0066

 - Thermochemistry -
 -------------------
 Temperature   298.150 Kelvin.  Pressure   1.00000 Atm.
 Atom     1 has atomic number  6 and mass  12.00000

 Molecular mass:   169.97311 amu.
 Principal axes and moments of inertia in atomic units:
                           1         2         3
     Eigenvalues --   326.276982824.797763139.79607
           X            1.00000   0.00000  -0.00039
           Y            0.00000   1.00000   0.00000
           Z            0.00039   0.00000   1.00000
 This molecule is an asymmetric top.
 Rotational symmetry number  1.
 Rotational temperatures (Kelvin)      0.26546     0.03066     0.02759
 Rotational constants (GHZ):           5.53132     0.63889     0.57480
    1 imaginary frequencies ignored.
 Zero-point vibrational energy     314564.5 (Joules/Mol)
                                   75.18272 (Kcal/Mol)
 Warning -- explicit consideration of   8 degrees of freedom as
           vibrations may cause significant error
 Vibrational temperatures:    183.83   316.95   434.69   528.63   550.41
          (Kelvin)            622.52   736.65   875.36   929.19  1160.90
                             1182.68  1237.93  1244.23  1443.52  1447.35
                             1458.05  1486.46  1575.02  1616.12  1649.07
                             1750.00  1808.71  1922.02  1934.09  2066.70
                             2095.51  2174.61  2180.79  2234.80  2402.76
                             2433.67  4417.73  4510.26  4543.02  4602.85
                             4603.54  4652.39  4653.77

 Zero-point correction=                           0.119811 (Hartree/Particle)
 Thermal correction to Energy=                    0.126289
 Thermal correction to Enthalpy=                  0.127233
 Thermal correction to Gibbs Free Energy=         0.087829
 Sum of electronic and zero-point Energies=          -2842.527688
 Sum of electronic and thermal Energies=             -2842.521211
 Sum of electronic and thermal Enthalpies=           -2842.520267
 Sum of electronic and thermal Free Energies=        -2842.559670

                     E (Thermal)             CV                S
                      KCal/Mol        Cal/Mol-Kelvin    Cal/Mol-Kelvin
 Total                   79.248             24.674             82.932
 Electronic               0.000              0.000              0.000
 Translational            0.889              2.981             41.299
 Rotational               0.889              2.981             29.449
 Vibrational             77.470             18.712             12.184
 Vibration     1          0.611              1.925              2.979
 Vibration     2          0.647              1.810              1.957
 Vibration     3          0.694              1.670              1.405
 Vibration     4          0.740              1.539              1.091
 Vibration     5          0.752              1.507              1.029
 Vibration     6          0.794              1.399              0.850
 Vibration     7          0.867              1.223              0.629
 Vibration     8          0.967              1.014              0.435

 Optimization completed.
    -- Stationary point found.
 Normal termination of Gaussian 09 at Fri Mar 21 15:03:04 2025.
