 Gaussian 09, Revision D.01,
 Gaussian 09:  ES64L-G09RevD.01 24-Apr-2013

 ---------------------------------
 #m062X/6-31+G(d) OPT Freq=noraman
 ---------------------------------

 --------------------------------------------
 (2R)-2-bromo-2-chloro-1,1,1-trifluoro-ethane
 --------------------------------------------
 Symbolic Z-matrix:
 Charge =  0 Multiplicity = 1

 SCF Done:  E(RM062X) =  -3408.18673991     A.U. after   13 cycles
 SCF Done:  E(RM062X) =  -3408.18833847     A.U. after   13 cycles
 SCF Done:  E(RM062X) =  -3408.18840985     A.U. after   10 cycles
 SCF Done:  E(RM062X) =  -3408.18842886     A.U. after   10 cycles
 SCF Done:  E(RM062X) =  -3408.18842311     A.U. after   10 cycles
 SCF Done:  E(RM062X) =  -3408.18842423     A.U. after    8 cycles
 Optimization completed.
    -- Stationary point found.
 Normal termination of Gaussian 09 at Fri Mar 14 15:50:01 2025.

 ---------------------------------------------------------------------
 #N Geom=AllCheck Guess=TCheck SCRF=Check GenChk RM062X/6-31+G(d) Freq
 ---------------------------------------------------------------------

 Structure from the checkpoint file:  "/srv/scratch/z5358697/gauss/Gau-2255653.chk"
 --------------------------------------------
 (2R)-2-bromo-2-chloro-1,1,1-trifluoro-ethane
 --------------------------------------------
 Charge =  0 Multiplicity = 1

                         Standard orientation:
 ---------------------------------------------------------------------
 Center     Atomic      Atomic             Coordinates (Angstroms)
 Number     Number       Type             X           Y           Z
 ---------------------------------------------------------------------
      1          6           0        0.107320    0.359736   -0.544243
      2          1           0        0.140198    0.349215   -1.632100
      3          6           0        1.202041   -0.561428   -0.002754
      4          9           0        2.402167   -0.134761   -0.413320
      5          9           0        1.204680   -0.604995    1.327988
      6          9           0        1.032125   -1.802715   -0.469804
      7         17           0        0.391003    2.004894    0.028424
      8         35           0       -1.611262   -0.295429    0.012203
 ---------------------------------------------------------------------

 SCF Done:  E(RM062X) =  -3408.18842423     A.U. after    1 cycles

 The electronic state is 1-A.
 Alpha  occ. eigenvalues -- -485.51038-102.70303 -62.79219 -57.32392 -57.32087
 Alpha  occ. eigenvalues --  -57.32079 -25.32641 -25.32574 -25.32468 -10.84290
 Alpha  occ. eigenvalues --  -10.70790  -9.85024  -8.96438  -7.57471  -7.56717
 Alpha  occ. eigenvalues --   -7.56702  -6.91939  -6.90775  -6.90757  -2.94779
 Alpha  occ. eigenvalues --   -2.94380  -2.94364  -2.93333  -2.93333  -1.49591
 Alpha  occ. eigenvalues --   -1.40211  -1.40106  -1.03091  -0.91464  -0.86124
 Alpha  occ. eigenvalues --   -0.77605  -0.72093  -0.71767  -0.67350  -0.60009
 Alpha  occ. eigenvalues --   -0.59622  -0.57193  -0.55964  -0.54070  -0.53455
 Alpha  occ. eigenvalues --   -0.51536  -0.50827  -0.41042  -0.40724  -0.37476
 Alpha  occ. eigenvalues --   -0.37009
 Alpha virt. eigenvalues --   -0.01784   0.00834   0.01608   0.03827   0.04358
 Alpha virt. eigenvalues --    0.05338   0.06292   0.06825   0.07506   0.08445
 Alpha virt. eigenvalues --    0.08661   0.10528   0.11827   0.12108   0.12884

 Mulliken charges:
               1
     1  C   -0.595142
     2  H    0.317421
     3  C    0.912203
     4  F   -0.285712
     5  F   -0.269467
     6  F   -0.281579
     7  Cl   0.150981
     8  Br   0.051294
 Sum of Mulliken charges =   0.00000

 Dipole moment (field-independent basis, Debye):
    X=             -0.6148    Y=              0.3489    Z=             -1.3061  Tot=              1.4851
 Quadrupole moment (field-independent basis, Debye-Ang):
   XX=            -59.1733   YY=            -59.2890   ZZ=            -56.4896
   XY=              0.9641   XZ=             -0.6696   YZ=             -0.4269

  Exact polarizability:  60.903   7.220  59.799  -1.842   1.368  45.450
 Approx polarizability:  71.448   9.783  71.814  -3.597   2.561  58.786

                      1                      2                      3
                      A                      A                      A
 Frequencies --     73.4197               160.4991               207.9248
 Red. masses --     20.9609                23.6182                22.2806
 Frc consts  --      0.0666                 0.3585                 0.5675
 IR Inten    --      0.0166                 1.2168                 0.4556

                      4                      5                      6
                      A                      A                      A
 Frequencies --    240.4408               319.8883               371.5556
 Red. masses --     21.6606                20.9700                19.6255
 Frc consts  --      0.7378                 1.2643                 1.5963
 IR Inten    --      0.4851                 0.6959                 0.4280

                      7                      8                      9
                      A                      A                      A
 Frequencies --    524.6234               558.3160               676.3231
 Red. masses --     14.1169                17.5903                11.3801
 Frc consts  --      2.2892                 3.2306                 3.0669
 IR Inten    --      5.8996                 6.4708                32.1331

                     10                     11                     12
                      A                      A                      A
 Frequencies --    746.5663               839.1289               898.6520
 Red. masses --      6.0658                 7.9885                 6.2719
 Frc consts  --      1.9919                 3.3141                 2.9842
 IR Inten    --     23.4106                90.1929                20.7685

                     13                     14                     15
                      A                      A                      A
 Frequencies --   1181.9103              1244.4991              1271.2200
 Red. masses --      2.1061                 1.3561                 4.3404
 Frc consts  --      1.7334                 1.2375                 4.1326
 IR Inten    --    173.4682               118.9076               115.1153

                     16                     17                     18
                      A                      A                      A
 Frequencies --   1326.2292              1369.8113              3207.1376
 Red. masses --      8.6153                 2.4887                 1.0878
 Frc consts  --      8.9280                 2.7513                 6.5923
 IR Inten    --    192.3491               118.3310                 5.4983

 - Thermochemistry -
 -------------------
 Temperature   298.150 Kelvin.  Pressure   1.00000 Atm.
 Atom     1 has atomic number  6 and mass  12.00000

 Molecular mass:   195.89022 amu.
 Principal axes and moments of inertia in atomic units:
                           1         2         3
     Eigenvalues --   960.820461542.423192166.17386
           X            0.99993  -0.01152  -0.00084
           Y            0.01151   0.99993  -0.00416
           Z            0.00089   0.00415   0.99999
 This molecule is an asymmetric top.
 Rotational symmetry number  1.
 Warning -- assumption of classical behavior for rotation
           may cause significant error
 Rotational temperatures (Kelvin)      0.09015     0.05615     0.03998
 Rotational constants (GHZ):           1.87833     1.17007     0.83315
 Zero-point vibrational energy      91024.7 (Joules/Mol)
                                   21.75543 (Kcal/Mol)
 Warning -- explicit consideration of   8 degrees of freedom as
           vibrations may cause significant error
 Vibrational temperatures:    105.63   230.92   299.16   345.94   460.25
          (Kelvin)            534.58   754.82   803.29   973.08  1074.14
                             1207.32  1292.96  1700.50  1790.55  1829.00
                             1908.15  1970.85  4614.35

 Zero-point correction=                           0.034669 (Hartree/Particle)
 Thermal correction to Energy=                    0.041490
 Thermal correction to Enthalpy=                  0.042435
 Thermal correction to Gibbs Free Energy=         0.001424
 Sum of electronic and zero-point Energies=          -3408.153755
 Sum of electronic and thermal Energies=             -3408.146934
 Sum of electronic and thermal Enthalpies=           -3408.145990
 Sum of electronic and thermal Free Energies=        -3408.187000

                     E (Thermal)             CV                S
                      KCal/Mol        Cal/Mol-Kelvin    Cal/Mol-Kelvin
 Total                   26.036             22.428             86.314
 Electronic               0.000              0.000              0.000
 Translational            0.889              2.981             41.722
 Rotational               0.889              2.981             29.553
 Vibrational             24.258             16.466             15.039
 Vibration     1          0.599              1.967              4.060
 Vibration     2          0.622              1.891              2.544
 Vibration     3          0.641              1.829              2.062
 Vibration     4          0.658              1.779              1.800
 Vibration     5          0.706              1.636              1.311
 Vibration     6          0.743              1.531              1.073
 Vibration     7          0.880              1.195              0.599
 Vibration     8          0.914              1.122              0.527

 Optimization completed.
    -- Stationary point found.
 Normal termination of Gaussian 09 at Fri Mar 14 15:52:16 2025.
