 Gaussian 09, Revision D.01,
 Gaussian 09:  ES64L-G09RevD.01 24-Apr-2013

 ---------------------------------
 #m062X/6-31+G(d) OPT Freq=noraman
 ---------------------------------

 -------------------
 1,4-dichlorobenzene
 -------------------
 Symbolic Z-matrix:
 Charge =  0 Multiplicity = 1

 SCF Done:  E(RM062X) =  -1151.28267246     A.U. after   12 cycles
 SCF Done:  E(RM062X) =  -1151.28323977     A.U. after   11 cycles
 SCF Done:  E(RM062X) =  -1151.28333000     A.U. after    9 cycles
 Optimization completed.
    -- Stationary point found.
 Normal termination of Gaussian 09 at Sun Mar 16 21:39:57 2025.

 ---------------------------------------------------------------------
 #N Geom=AllCheck Guess=TCheck SCRF=Check GenChk RM062X/6-31+G(d) Freq
 ---------------------------------------------------------------------

 Structure from the checkpoint file:  "/srv/scratch/z5358697/gauss/Gau-2455543.chk"
 -------------------
 1,4-dichlorobenzene
 -------------------
 Charge =  0 Multiplicity = 1

                         Standard orientation:
 ---------------------------------------------------------------------
 Center     Atomic      Atomic             Coordinates (Angstroms)
 Number     Number       Type             X           Y           Z
 ---------------------------------------------------------------------
      1          6           0       -0.695898   -1.211435   -0.000006
      2          6           0        0.695894   -1.211424    0.000002
      3          6           0        1.380662   -0.000006    0.000009
      4          6           0        0.695896    1.211420   -0.000010
      5          6           0       -0.695891    1.211417    0.000009
      6          6           0       -1.380663   -0.000004    0.000029
      7         17           0       -3.123271    0.000008   -0.000004
      8         17           0        3.123271    0.000005   -0.000002
      9          1           0       -1.246888   -2.146177   -0.000070
     10          1           0        1.246874   -2.146178    0.000025
     11          1           0        1.246889    2.146166   -0.000039
     12          1           0       -1.246881    2.146165   -0.000015
 ---------------------------------------------------------------------

 SCF Done:  E(RM062X) =  -1151.28333000     A.U. after    2 cycles

 The electronic state is 1-A.
 Alpha  occ. eigenvalues -- -102.68140-102.68140 -10.63303 -10.63301 -10.58693
 Alpha  occ. eigenvalues --  -10.58690 -10.58614 -10.58614  -9.82809  -9.82809
 Alpha  occ. eigenvalues --   -7.55219  -7.55219  -7.54545  -7.54545  -7.54533
 Alpha  occ. eigenvalues --   -7.54532  -1.02366  -0.98773  -0.93022  -0.87880
 Alpha  occ. eigenvalues --   -0.82415  -0.73003  -0.69265  -0.60640  -0.56770
 Alpha  occ. eigenvalues --   -0.55641  -0.52202  -0.51038  -0.49479  -0.45022
 Alpha  occ. eigenvalues --   -0.44675  -0.44372  -0.39060  -0.38826  -0.38613
 Alpha  occ. eigenvalues --   -0.33767  -0.30339
 Alpha virt. eigenvalues --   -0.00722  -0.00524   0.01393   0.02258   0.02961
 Alpha virt. eigenvalues --    0.03029   0.05806   0.06021   0.06356   0.06665
 Alpha virt. eigenvalues --    0.07812   0.07869   0.08823   0.09038   0.09083

 Mulliken charges:
               1
     1  C   -0.338282
     2  C   -0.338297
     3  C    0.020463
     4  C   -0.338297
     5  C   -0.338304
     6  C    0.020462
     7  Cl   0.182376
     8  Cl   0.182376
     9  H    0.236876
    10  H    0.236875
    11  H    0.236876
    12  H    0.236875
 Sum of Mulliken charges =   0.00000

 Dipole moment (field-independent basis, Debye):
    X=              0.0000    Y=              0.0000    Z=             -0.0001  Tot=              0.0001
 Quadrupole moment (field-independent basis, Debye-Ang):
   XX=            -66.4871   YY=            -52.8124   ZZ=            -63.4220
   XY=              0.0001   XZ=              0.0001   YZ=              0.0000

  Exact polarizability: 133.298   0.000  86.107  -0.004   0.001  49.615
 Approx polarizability: 151.910   0.000 115.453   0.000   0.000  62.571

                      1                      2                      3
                      A                      A                      A
 Frequencies --    105.6129               223.0056               300.7081
 Red. masses --     12.2391                12.4835                 7.2343
 Frc consts  --      0.0804                 0.3658                 0.3854
 IR Inten    --      0.3944                 0.9673                 0.0000

                      4                      5                      6
                      A                      A                      A
 Frequencies --    334.3668               356.8384               421.7180
 Red. masses --     26.2453                 4.8620                 2.9813
 Frc consts  --      1.7288                 0.3648                 0.3124
 IR Inten    --      0.0000                 0.0000                 0.0000

                      7                      8                      9
                      A                      A                      A
 Frequencies --    496.8348               560.9755               637.5044
 Red. masses --      2.8772                 9.3219                 7.1383
 Frc consts  --      0.4184                 1.7284                 1.7093
 IR Inten    --     20.2929                32.3292                 0.0000

                     10                     11                     12
                      A                      A                      A
 Frequencies --    707.8725               770.7801               843.9339
 Red. masses --      4.1073                 7.1774                 1.2463
 Frc consts  --      1.2126                 2.5123                 0.5230
 IR Inten    --      0.0000                 0.0000                 0.1304

                     13                     14                     15
                      A                      A                      A
 Frequencies --    844.1010               973.0258               991.9375
 Red. masses --      1.4786                 1.3085                 1.3511
 Frc consts  --      0.6207                 0.7299                 0.7832
 IR Inten    --     60.0944                 0.0000                 0.0000

                     16                     17                     18
                      A                      A                      A
 Frequencies --   1027.8365              1128.8662              1135.4526
 Red. masses --      4.7047                 1.8970                 1.2685
 Frc consts  --      2.9284                 1.4243                 0.9635
 IR Inten    --     63.2271                95.7595                 5.2128

                     19                     20                     21
                      A                      A                      A
 Frequencies --   1143.9611              1205.0681              1319.8851
 Red. masses --      7.3145                 1.1337                 1.2375
 Frc consts  --      5.6397                 0.9700                 1.2702
 IR Inten    --      0.0000                 0.0000                 0.0000

                     22                     23                     24
                      A                      A                      A
 Frequencies --   1332.2943              1452.6180              1533.6829
 Red. masses --     11.6154                 3.1803                 2.4036
 Frc consts  --     12.1474                 3.9539                 3.3311
 IR Inten    --      0.3360                 6.4051               116.8451

                     25                     26                     27
                      A                      A                      A
 Frequencies --   1670.2568              1676.7227              3229.9457
 Red. masses --      7.9487                 6.4353                 1.0895
 Frc consts  --     13.0651                10.6596                 6.6968
 IR Inten    --      0.0000                 0.0000                 0.5091

                     28                     29                     30
                      A                      A                      A
 Frequencies --   3231.1972              3242.1033              3243.5792
 Red. masses --      1.0899                 1.0966                 1.0972
 Frc consts  --      6.7044                 6.7915                 6.8010
 IR Inten    --      0.0001                 0.1404                 0.0000

 - Thermochemistry -
 -------------------
 Temperature   298.150 Kelvin.  Pressure   1.00000 Atm.
 Atom     1 has atomic number  6 and mass  12.00000

 Molecular mass:   145.96901 amu.
 Principal axes and moments of inertia in atomic units:
                           1         2         3
     Eigenvalues --   317.863022705.052743022.91576
           X            1.00000   0.00000   0.00000
           Y            0.00000   1.00000   0.00000
           Z            0.00000   0.00000   1.00000
 This molecule is an asymmetric top.
 Rotational symmetry number  1.
 Rotational temperatures (Kelvin)      0.27249     0.03202     0.02865
 Rotational constants (GHZ):           5.67773     0.66717     0.59702
 Zero-point vibrational energy     216181.3 (Joules/Mol)
                                   51.66856 (Kcal/Mol)
 Warning -- explicit consideration of   8 degrees of freedom as
           vibrations may cause significant error
 Vibrational temperatures:    151.95   320.85   432.65   481.08   513.41
          (Kelvin)            606.76   714.83   807.12   917.23  1018.47
                             1108.98  1214.23  1214.47  1399.97  1427.18
                             1478.83  1624.18  1633.66  1645.90  1733.82
                             1899.02  1916.87  2089.99  2206.62  2403.12
                             2412.43  4647.17  4648.97  4664.66  4666.78

 Zero-point correction=                           0.082339 (Hartree/Particle)
 Thermal correction to Energy=                    0.088970
 Thermal correction to Enthalpy=                  0.089914
 Thermal correction to Gibbs Free Energy=         0.050397
 Sum of electronic and zero-point Energies=          -1151.200991
 Sum of electronic and thermal Energies=             -1151.194360
 Sum of electronic and thermal Enthalpies=           -1151.193416
 Sum of electronic and thermal Free Energies=        -1151.232933

                     E (Thermal)             CV                S
                      KCal/Mol        Cal/Mol-Kelvin    Cal/Mol-Kelvin
 Total                   55.830             24.580             83.171
 Electronic               0.000              0.000              0.000
 Translational            0.889              2.981             40.845
 Rotational               0.889              2.981             29.343
 Vibrational             54.052             18.619             12.983
 Vibration     1          0.605              1.945              3.348
 Vibration     2          0.649              1.806              1.935
 Vibration     3          0.693              1.672              1.413
 Vibration     4          0.716              1.607              1.239
 Vibration     5          0.732              1.561              1.136
 Vibration     6          0.784              1.423              0.886
 Vibration     7          0.852              1.257              0.666
 Vibration     8          0.917              1.116              0.522

 Optimization completed.
    -- Stationary point found.
 Normal termination of Gaussian 09 at Sun Mar 16 21:44:37 2025.
