 Gaussian 09, Revision D.01,
 Gaussian 09:  ES64L-G09RevD.01 24-Apr-2013

 ---------------------------------
 #m062X/6-31+G(d) OPT Freq=noraman
 ---------------------------------

 -----------------------------
 1,2,3,4,5,6-hexachlorobenzene
 -----------------------------
 Symbolic Z-matrix:
 Charge =  0 Multiplicity = 1

 SCF Done:  E(RM062X) =  -2989.52918932     A.U. after   12 cycles
 SCF Done:  E(RM062X) =  -2989.53051459     A.U. after   11 cycles
 SCF Done:  E(RM062X) =  -2989.53063171     A.U. after   11 cycles
 SCF Done:  E(RM062X) =  -2989.53059446     A.U. after   11 cycles
 SCF Done:  E(RM062X) =  -2989.53063416     A.U. after   10 cycles
 Optimization completed.
    -- Stationary point found.
 Normal termination of Gaussian 09 at Sun Mar 16 21:53:45 2025.

 ---------------------------------------------------------------------
 #N Geom=AllCheck Guess=TCheck SCRF=Check GenChk RM062X/6-31+G(d) Freq
 ---------------------------------------------------------------------

 Structure from the checkpoint file:  "/srv/scratch/z5358697/gauss/Gau-3725416.chk"
 -----------------------------
 1,2,3,4,5,6-hexachlorobenzene
 -----------------------------
 Charge =  0 Multiplicity = 1

                         Standard orientation:
 ---------------------------------------------------------------------
 Center     Atomic      Atomic             Coordinates (Angstroms)
 Number     Number       Type             X           Y           Z
 ---------------------------------------------------------------------
      1          6           0       -1.353406    0.355605    0.000003
      2          6           0       -0.368554    1.350354   -0.000002
      3          6           0        0.984895    0.994619   -0.000008
      4          6           0        1.353405   -0.355605   -0.000001
      5          6           0        0.368553   -1.350352   -0.000008
      6          6           0       -0.984898   -0.994620   -0.000005
      7         17           0       -2.197026   -2.217465   -0.000002
      8         17           0        0.823045   -3.010857    0.000002
      9         17           0        3.019119   -0.792918    0.000004
     10         17           0        2.197044    2.217444    0.000001
     11         17           0       -0.823065    3.010852   -0.000001
     12         17           0       -3.019115    0.792944    0.000005
 ---------------------------------------------------------------------

 SCF Done:  E(RM062X) =  -2989.53063416     A.U. after    1 cycles

 The electronic state is 1-A.
 Alpha  occ. eigenvalues -- -102.70617-102.70617-102.70614-102.70614-102.70600
 Alpha  occ. eigenvalues -- -102.70600 -10.67120 -10.67087 -10.67083 -10.67012
 Alpha  occ. eigenvalues --  -10.67008 -10.66974  -9.85233  -9.85233  -9.85229
 Alpha  occ. eigenvalues --   -9.85229  -9.85218  -9.85218  -7.57673  -7.57673
 Alpha  occ. eigenvalues --   -7.57668  -7.57668  -7.57657  -7.57656  -7.56963
 Alpha  occ. eigenvalues --   -7.56962  -7.56958  -7.56958  -7.56947  -7.56947
 Alpha  occ. eigenvalues --   -7.56915  -7.56915  -7.56911  -7.56910  -7.56899
 Alpha  occ. eigenvalues --   -7.56898  -1.09038  -1.03734  -1.03726  -0.98605
 Alpha  occ. eigenvalues --   -0.98590  -0.96353  -0.93644  -0.84181  -0.84168
 Alpha  occ. eigenvalues --   -0.72057  -0.72050  -0.64473  -0.60899  -0.56573
 Alpha  occ. eigenvalues --   -0.55898  -0.54174  -0.54160  -0.50573  -0.50566
 Alpha  occ. eigenvalues --   -0.48805  -0.48798  -0.43362  -0.43352  -0.42705
 Alpha  occ. eigenvalues --   -0.42699  -0.42639  -0.41953  -0.40299  -0.40283
 Alpha  occ. eigenvalues --   -0.38767  -0.37389  -0.32164  -0.32162
 Alpha virt. eigenvalues --   -0.03373  -0.03364  -0.02939   0.00976   0.01601
 Alpha virt. eigenvalues --    0.01604   0.03771   0.03773   0.04786   0.05140
 Alpha virt. eigenvalues --    0.05148   0.05337   0.06200   0.08002   0.08007

 Mulliken charges:
               1
     1  C   -0.298898
     2  C   -0.297246
     3  C   -0.312559
     4  C   -0.298909
     5  C   -0.297253
     6  C   -0.312546
     7  Cl   0.305297
     8  Cl   0.301762
     9  Cl   0.301648
    10  Cl   0.305295
    11  Cl   0.301764
    12  Cl   0.301645
 Sum of Mulliken charges =   0.00000

 Dipole moment (field-independent basis, Debye):
    X=              0.0000    Y=              0.0000    Z=              0.0000  Tot=              0.0000
 Quadrupole moment (field-independent basis, Debye-Ang):
   XX=           -108.1639   YY=           -108.1591   ZZ=           -109.4091
   XY=             -0.0016   XZ=              0.0000   YZ=              0.0000

  Exact polarizability: 174.991   0.026 174.947   0.000   0.000  72.865
 Approx polarizability: 213.458  -0.003 213.401   0.000   0.000  97.224

                      1                      2                      3
                      A                      A                      A
 Frequencies --     61.3238                67.9946                91.2190
 Red. masses --     33.9690                34.0617                34.7472
 Frc consts  --      0.0753                 0.0928                 0.1703
 IR Inten    --      0.0000                 0.0000                 0.0000

                      4                      5                      6
                      A                      A                      A
 Frequencies --    164.0206               216.8992               219.8325
 Red. masses --     14.4466                29.4723                29.3591
 Frc consts  --      0.2290                 0.8169                 0.8359
 IR Inten    --      0.0009                 0.2404                 0.1790

                      7                      8                      9
                      A                      A                      A
 Frequencies --    223.5616               224.2926               240.7919
 Red. masses --     34.6787                34.6992                34.9625
 Frc consts  --      1.0212                 1.0285                 1.1944
 IR Inten    --      0.0000                 0.0000                 0.0047

                     10                     11                     12
                      A                      A                      A
 Frequencies --    327.2895               328.1028               341.2886
 Red. masses --     27.9221                27.7614                12.5324
 Frc consts  --      1.7622                 1.7608                 0.8601
 IR Inten    --      0.0000                 0.0000                 0.0000

                     13                     14                     15
                      A                      A                      A
 Frequencies --    348.7203               381.4178               401.6867
 Red. masses --     12.5311                32.2453                32.4272
 Frc consts  --      0.8978                 2.7639                 3.0827
 IR Inten    --      0.0000                 0.0000                 0.0184

                     16                     17                     18
                      A                      A                      A
 Frequencies --    605.1390               610.0578               628.7059
 Red. masses --     12.1038                12.1105                12.5312
 Frc consts  --      2.6114                 2.6556                 2.9184
 IR Inten    --      0.0010                 0.0000                 0.0000

                     19                     20                     21
                      A                      A                      A
 Frequencies --    681.4207               712.9043               719.9656
 Red. masses --     12.0253                15.4961                15.5167
 Frc consts  --      3.2899                 4.6402                 4.7389
 IR Inten    --      0.0000                69.8097                65.6925

                     22                     23                     24
                      A                      A                      A
 Frequencies --    906.0822               917.7388              1119.2483
 Red. masses --     13.1780                13.2090                12.3320
 Frc consts  --      6.3743                 6.5548                 9.1020
 IR Inten    --      0.0000                 0.0000                 0.0610

                     25                     26                     27
                      A                      A                      A
 Frequencies --   1259.3373              1265.9316              1400.6092
 Red. masses --     12.0004                12.3564                12.0748
 Frc consts  --     11.2132                11.6671                13.9561
 IR Inten    --      0.0341                 0.0000               197.1658

                     28                     29                     30
                      A                      A                      A
 Frequencies --   1406.8975              1599.1664              1601.9652
 Red. masses --     12.0817                12.0026                12.0028
 Frc consts  --     14.0898                18.0848                18.1484
 IR Inten    --    196.4167                 0.0000                 0.0000

 - Thermochemistry -
 -------------------
 Temperature   298.150 Kelvin.  Pressure   1.00000 Atm.
 Atom     1 has atomic number  6 and mass  12.00000

 Molecular mass:   281.81312 amu.
 Principal axes and moments of inertia in atomic units:
                           1         2         3
     Eigenvalues --  3901.053303903.003167804.05646
           X            1.00000   0.00080   0.00000
           Y           -0.00080   1.00000   0.00000
           Z            0.00000   0.00000   1.00000
 This molecule is an asymmetric top.
 Rotational symmetry number  1.
 Warning -- assumption of classical behavior for rotation
           may cause significant error
 Rotational temperatures (Kelvin)      0.02220     0.02219     0.01110
 Rotational constants (GHZ):           0.46263     0.46240     0.23126
 Zero-point vibrational energy     114085.5 (Joules/Mol)
                                   27.26710 (Kcal/Mol)
 Warning -- explicit consideration of  17 degrees of freedom as
           vibrations may cause significant error
 Vibrational temperatures:     88.23    97.83   131.24   235.99   312.07
          (Kelvin)            316.29   321.65   322.71   346.45   470.90
                              472.07   491.04   501.73   548.77   577.94
                              870.66   877.74   904.57   980.41  1025.71
                             1035.87  1303.65  1320.42  1610.35  1811.90
                             1821.39  2015.16  2024.21  2300.84  2304.87

 Zero-point correction=                           0.043453 (Hartree/Particle)
 Thermal correction to Energy=                    0.054984
 Thermal correction to Enthalpy=                  0.055928
 Thermal correction to Gibbs Free Energy=         0.003742
 Sum of electronic and zero-point Energies=          -2989.487181
 Sum of electronic and thermal Energies=             -2989.475650
 Sum of electronic and thermal Enthalpies=           -2989.474706
 Sum of electronic and thermal Free Energies=        -2989.526892

                     E (Thermal)             CV                S
                      KCal/Mol        Cal/Mol-Kelvin    Cal/Mol-Kelvin
 Total                   34.503             39.492            109.834
 Electronic               0.000              0.000              0.000
 Translational            0.889              2.981             42.806
 Rotational               0.889              2.981             33.141
 Vibrational             32.725             33.530             33.887
 Vibration     1          0.597              1.973              4.414
 Vibration     2          0.598              1.969              4.211
 Vibration     3          0.602              1.955              3.634
 Vibration     4          0.623              1.887              2.503
 Vibration     5          0.646              1.815              1.985
 Vibration     6          0.647              1.811              1.960
 Vibration     7          0.649              1.805              1.930
 Vibration     8          0.649              1.804              1.924
 Vibration     9          0.658              1.778              1.797
 Vibration    10          0.711              1.621              1.273
 Vibration    11          0.711              1.619              1.269
 Vibration    12          0.721              1.593              1.206
 Vibration    13          0.726              1.578              1.172
 Vibration    14          0.751              1.510              1.034
 Vibration    15          0.767              1.466              0.956
 Vibration    16          0.964              1.021              0.441
 Vibration    17          0.969              1.011              0.433

 Normal termination of Gaussian 09 at Sun Mar 16 22:05:32 2025.
