 Gaussian 09, Revision D.01,
 Gaussian 09:  ES64L-G09RevD.01 24-Apr-2013

 ---------------------------------
 #m062X/6-31+G(d) OPT Freq=noraman
 ---------------------------------

 -------
 aniline
 -------
 Symbolic Z-matrix:
 Charge =  0 Multiplicity = 1

 SCF Done:  E(RM062X) =  -287.476894398     A.U. after   13 cycles
 SCF Done:  E(RM062X) =  -287.478201333     A.U. after   12 cycles
 SCF Done:  E(RM062X) =  -287.478492420     A.U. after   12 cycles
 SCF Done:  E(RM062X) =  -287.478801163     A.U. after   13 cycles
 SCF Done:  E(RM062X) =  -287.478987208     A.U. after   13 cycles
 SCF Done:  E(RM062X) =  -287.479238112     A.U. after   11 cycles
 SCF Done:  E(RM062X) =  -287.479859735     A.U. after   12 cycles
 SCF Done:  E(RM062X) =  -287.479900604     A.U. after   12 cycles
 SCF Done:  E(RM062X) =  -287.479913421     A.U. after   12 cycles
 SCF Done:  E(RM062X) =  -287.479924018     A.U. after   10 cycles
 Optimization completed.
    -- Stationary point found.

 1\1\GINC-KATANA2\FOpt\RM062X\6-31+G(d)\C6H7N1\Z5358697\21-Mar-2025\0\\
 #m062X/6-31+G(d) OPT Freq=noraman\\aniline\\0,1\C,1.8975073305,-1.0141
 004602,-0.1174669199\C,2.91629371,-1.6244677973,0.6130448459\C,2.85829
 12331,-1.6841578405,2.0018800913\C,1.7718774079,-1.1290175531,2.690648
 897\C,0.7476740978,-0.5183220122,1.9551664784\C,0.8144219282,-0.463462
 2551,0.5665237269\N,1.6801343078,-1.239360371,4.0819476458\H,1.9464656
 611,-0.9688705767,-1.2006520442\H,3.7684361121,-2.0602191348,0.0986124
 06\H,3.654570018,-2.1690983706,2.5620917866\H,-0.1051689583,-0.0923442

 Normal termination of Gaussian 09 at Fri Mar 21 13:35:52 2025.

 ---------------------------------------------------------------------
 #N Geom=AllCheck Guess=TCheck SCRF=Check GenChk RM062X/6-31+G(d) Freq
 ---------------------------------------------------------------------

 Structure from the checkpoint file:  "/srv/scratch/z5358697/gauss/Gau-2706612.chk"
 -------
 aniline
 -------
 Charge =  0 Multiplicity = 1

                         Standard orientation:
 ---------------------------------------------------------------------
 Center     Atomic      Atomic             Coordinates (Angstroms)
 Number     Number       Type             X           Y           Z
 ---------------------------------------------------------------------
      1          6           0       -1.878198    0.000000    0.008802
      2          6           0       -1.169607    1.200830    0.003482
      3          6           0        0.221682    1.205825   -0.005406
      4          6           0        0.935024    0.000000   -0.008147
      5          6           0        0.221684   -1.205826   -0.005406
      6          6           0       -1.169607   -1.200829    0.003482
      7          7           0        2.331984    0.000001   -0.077476
      8          1           0       -2.963406    0.000000    0.016369
      9          1           0       -1.703341    2.147289    0.006677
     10          1           0        0.765057    2.147989   -0.017009
     11          1           0        0.765052   -2.147994   -0.017012
     12          1           0       -1.703341   -2.147288    0.006679
     13          1           0        2.775113   -0.835850    0.282898
     14          1           0        2.775113    0.835852    0.282898
 ---------------------------------------------------------------------

 SCF Done:  E(RM062X) =  -287.479924018     A.U. after    1 cycles

 The electronic state is 1-A.
 Alpha  occ. eigenvalues --  -14.77150 -10.59398 -10.55242 -10.55240 -10.54749
 Alpha  occ. eigenvalues --  -10.54749 -10.54214  -1.02995  -0.94026  -0.84083
 Alpha  occ. eigenvalues --   -0.82026  -0.69574  -0.67985  -0.59993  -0.58247
 Alpha  occ. eigenvalues --   -0.54991  -0.49968  -0.49228  -0.48401  -0.45594
 Alpha  occ. eigenvalues --   -0.41683  -0.39918  -0.37792  -0.30384  -0.25907
 Alpha virt. eigenvalues --    0.01530   0.02232   0.03240   0.03372   0.03753
 Alpha virt. eigenvalues --    0.04992   0.05100   0.07759   0.08398   0.10039
 Alpha virt. eigenvalues --    0.10266   0.10760   0.10794   0.13373   0.14353

 Mulliken charges:
               1
     1  C   -0.238345
     2  C   -0.334805
     3  C   -0.130045
     4  C    0.258785
     5  C   -0.130047
     6  C   -0.334802
     7  N   -0.846198
     8  H    0.200359
     9  H    0.202561
    10  H    0.190575
    11  H    0.190575
    12  H    0.202561
    13  H    0.384413
    14  H    0.384413
 Sum of Mulliken charges =   0.00000

 Dipole moment (field-independent basis, Debye):
    X=              1.1384    Y=              0.0000    Z=              1.0962  Tot=              1.5804
 Quadrupole moment (field-independent basis, Debye-Ang):
   XX=            -35.3995   YY=            -36.6258   ZZ=            -47.6355
   XY=              0.0000   XZ=              3.5512   YZ=              0.0000

  Exact polarizability:  97.594   0.000  82.304  -0.361   0.000  45.086
 Approx polarizability: 119.572   0.000 106.668  -0.815   0.000  55.535

                      1                      2                      3
                      A                      A                      A
 Frequencies --    223.7793               282.4345               381.7983
 Red. masses --      3.6156                 1.0443                 2.8969
 Frc consts  --      0.1067                 0.0491                 0.2488
 IR Inten    --      5.9538                22.4988                 0.3488

                      4                      5                      6
                      A                      A                      A
 Frequencies --    417.9679               507.0473               535.1004
 Red. masses --      2.9001                 2.3589                 6.3608
 Frc consts  --      0.2985                 0.3573                 1.0731
 IR Inten    --      0.3653                60.3421                 2.0771

                      7                      8                      9
                      A                      A                      A
 Frequencies --    630.5448               633.5201               700.6681
 Red. masses --      6.3109                 1.3656                 2.0481
 Frc consts  --      1.4783                 0.3229                 0.5924
 IR Inten    --      0.3088               283.6766                22.7630

                     10                     11                     12
                      A                      A                      A
 Frequencies --    770.5078               841.4963               841.8612
 Red. masses --      1.7375                 1.2589                 4.2290
 Frc consts  --      0.6078                 0.5252                 1.7659
 IR Inten    --     94.3366                 0.0570                 3.8197

                     13                     14                     15
                      A                      A                      A
 Frequencies --    903.8375               982.1289              1004.0628
 Red. masses --      1.4947                 1.3573                 1.2762
 Frc consts  --      0.7194                 0.7714                 0.7580
 IR Inten    --      9.4416                 0.0006                 0.1672

                     16                     17                     18
                      A                      A                      A
 Frequencies --   1013.0870              1067.9028              1084.4430
 Red. masses --      5.5094                 2.0803                 1.5180
 Frc consts  --      3.3316                 1.3978                 1.0518
 IR Inten    --      0.2776                 3.7249                 2.6898

                     19                     20                     21
                      A                      A                      A
 Frequencies --   1144.6769              1182.8387              1207.4418
 Red. masses --      1.2335                 1.0943                 1.1100
 Frc consts  --      0.9523                 0.9020                 0.9535
 IR Inten    --      5.4609                 1.3843                 8.7253

                     22                     23                     24
                      A                      A                      A
 Frequencies --   1321.2561              1367.3722              1369.9341
 Red. masses --      3.0633                 1.2850                 5.7429
 Frc consts  --      3.1507                 1.4156                 6.3501
 IR Inten    --     61.9178                 0.0250                 8.3312

                     25                     26                     27
                      A                      A                      A
 Frequencies --   1525.3107              1557.2407              1682.1007
 Red. masses --      2.4901                 2.5487                 6.2103
 Frc consts  --      3.4133                 3.6415                10.3531
 IR Inten    --      1.6515                73.3978                 5.4375

                     28                     29                     30
                      A                      A                      A
 Frequencies --   1687.1129              1707.1781              3190.9768
 Red. masses --      1.5508                 2.5437                 1.0868
 Frc consts  --      2.6007                 4.3680                 6.5200
 IR Inten    --      9.2445               176.1543                15.0385

                     31                     32                     33
                      A                      A                      A
 Frequencies --   3192.3167              3207.3400              3212.6944
 Red. masses --      1.0890                 1.0908                 1.0950
 Frc consts  --      6.5388                 6.6111                 6.6589
 IR Inten    --      3.3513                 2.6584                26.2486

                     34                     35                     36
                      A                      A                      A
 Frequencies --   3228.6950              3579.4186              3679.1555
 Red. masses --      1.0981                 1.0488                 1.0982
 Frc consts  --      6.7447                 7.9173                 8.7581
 IR Inten    --     10.2568                20.2317                18.9821

 - Thermochemistry -
 -------------------
 Temperature   298.150 Kelvin.  Pressure   1.00000 Atm.
 Atom     1 has atomic number  6 and mass  12.00000

 Molecular mass:    93.05785 amu.
 Principal axes and moments of inertia in atomic units:
                           1         2         3
     Eigenvalues --   320.47016 695.023651013.81811
           X            0.99997   0.00000   0.00755
           Y            0.00000   1.00000   0.00000
           Z           -0.00755   0.00000   0.99997
 This molecule is an asymmetric top.
 Rotational symmetry number  1.
 Rotational temperatures (Kelvin)      0.27027     0.12462     0.08543
 Rotational constants (GHZ):           5.63154     2.59666     1.78014
 Zero-point vibrational energy     310223.1 (Joules/Mol)
                                   74.14509 (Kcal/Mol)
 Warning -- explicit consideration of   6 degrees of freedom as
           vibrations may cause significant error
 Vibrational temperatures:    321.97   406.36   549.32   601.36   729.53
          (Kelvin)            769.89   907.21   911.49  1008.10  1108.59
                             1210.72  1211.25  1300.42  1413.06  1444.62
                             1457.60  1536.47  1560.27  1646.93  1701.84
                             1737.24  1900.99  1967.34  1971.03  2194.58
                             2240.52  2420.16  2427.38  2456.25  4591.10
                             4593.03  4614.64  4622.34  4645.37  5149.98
                             5293.48

 Zero-point correction=                           0.118158 (Hartree/Particle)
 Thermal correction to Energy=                    0.123932
 Thermal correction to Enthalpy=                  0.124876
 Thermal correction to Gibbs Free Energy=         0.089007
 Sum of electronic and zero-point Energies=           -287.361766
 Sum of electronic and thermal Energies=              -287.355992
 Sum of electronic and thermal Enthalpies=            -287.355048
 Sum of electronic and thermal Free Energies=         -287.390917

                     E (Thermal)             CV                S
                      KCal/Mol        Cal/Mol-Kelvin    Cal/Mol-Kelvin
 Total                   77.768             22.954             75.493
 Electronic               0.000              0.000              0.000
 Translational            0.889              2.981             39.504
 Rotational               0.889              2.981             26.915
 Vibrational             75.991             16.992              9.074
 Vibration     1          0.649              1.805              1.928
 Vibration     2          0.681              1.706              1.519
 Vibration     3          0.751              1.509              1.032
 Vibration     4          0.781              1.431              0.899
 Vibration     5          0.862              1.234              0.641
 Vibration     6          0.890              1.172              0.576

 Optimization completed.
    -- Stationary point found.

 1\1\GINC-KATANA2\Freq\RM062X\6-31+G(d)\C6H7N1\Z5358697\21-Mar-2025\0\\
 #N Geom=AllCheck Guess=TCheck SCRF=Check GenChk RM062X/6-31+G(d) Freq\
 \aniline\\0,1\C,1.8975073305,-1.0141004602,-0.1174669199\C,2.91629371,
 -1.6244677973,0.6130448459\C,2.8582912331,-1.6841578405,2.0018800913\C
 ,1.7718774079,-1.1290175531,2.690648897\C,0.7476740978,-0.5183220122,1
 .9551664784\C,0.8144219282,-0.4634622551,0.5665237269\N,1.6801343078,-
 1.239360371,4.0819476458\H,1.9464656611,-0.9688705767,-1.2006520442\H,
 3.7684361121,-2.0602191348,0.098612406\H,3.654570018,-2.1690983706,2.5

 Normal termination of Gaussian 09 at Fri Mar 21 13:40:09 2025.
