 Gaussian 09, Revision D.01,
 Gaussian 09:  ES64L-G09RevD.01 24-Apr-2013

 ---------------------------------
 #m062X/6-31+G(d) OPT Freq=noraman
 ---------------------------------

 -----------------
 1-methylimidazole
 -----------------
 Symbolic Z-matrix:
 Charge =  0 Multiplicity = 1

 SCF Done:  E(RM062X) =  -265.409000466     A.U. after   13 cycles
 SCF Done:  E(RM062X) =  -265.418798788     A.U. after   12 cycles
 SCF Done:  E(RM062X) =  -265.419875642     A.U. after   11 cycles
 SCF Done:  E(RM062X) =  -265.419988151     A.U. after   10 cycles
 SCF Done:  E(RM062X) =  -265.420035252     A.U. after   10 cycles
 SCF Done:  E(RM062X) =  -265.420072268     A.U. after   10 cycles
 SCF Done:  E(RM062X) =  -265.420130757     A.U. after   10 cycles
 SCF Done:  E(RM062X) =  -265.420182616     A.U. after   11 cycles
 SCF Done:  E(RM062X) =  -265.420219952     A.U. after    9 cycles
 SCF Done:  E(RM062X) =  -265.420262206     A.U. after   10 cycles
 SCF Done:  E(RM062X) =  -265.420287496     A.U. after   10 cycles
 SCF Done:  E(RM062X) =  -265.420299520     A.U. after   11 cycles
 SCF Done:  E(RM062X) =  -265.420302460     A.U. after    9 cycles
 SCF Done:  E(RM062X) =  -265.420302738     A.U. after    8 cycles
 SCF Done:  E(RM062X) =  -265.420302788     A.U. after    7 cycles
 SCF Done:  E(RM062X) =  -265.420302844     A.U. after    7 cycles
 SCF Done:  E(RM062X) =  -265.420303209     A.U. after    9 cycles
 SCF Done:  E(RM062X) =  -265.420302907     A.U. after    9 cycles
 Optimization completed.
    -- Stationary point found.

 The electronic state is 1-A.
 Alpha  occ. eigenvalues --  -14.82773 -14.74142 -10.60657 -10.60102 -10.57597
 Alpha  occ. eigenvalues --  -10.55907  -1.13692  -0.99427  -0.85108  -0.81450
 Alpha  occ. eigenvalues --   -0.68073  -0.65880  -0.61461  -0.55723  -0.52475
 Alpha  occ. eigenvalues --   -0.49668  -0.48318  -0.47235  -0.46523  -0.33794
 Alpha  occ. eigenvalues --   -0.33038  -0.28309
 Alpha virt. eigenvalues --    0.01110   0.02599   0.03179   0.03756   0.05396
 Alpha virt. eigenvalues --    0.05986   0.06450   0.06870   0.08295   0.09105
 Alpha virt. eigenvalues --    0.09852   0.10255   0.12019   0.12690   0.14146

 Mulliken charges:
               1
     1  C   -0.458839
     2  N   -0.238155
     3  C   -0.112687
     4  C   -0.218823
     5  N   -0.281173
     6  C   -0.029563
     7  H    0.237353
     8  H    0.238138
     9  H    0.220444
    10  H    0.224904
    11  H    0.207460
    12  H    0.210941
 Sum of Mulliken charges =   0.00000

 Dipole moment (field-independent basis, Debye):
    X=              4.1204    Y=             -1.2702    Z=              0.0011  Tot=              4.3117
 Quadrupole moment (field-independent basis, Debye-Ang):
   XX=            -35.3349   YY=            -33.6031   ZZ=            -38.5817
   XY=              4.1964   XZ=              0.0031   YZ=              0.0003

 1\1\GINC-KATANA1\FOpt\RM062X\6-31+G(d)\C4H6N2\Z5358697\20-Mar-2025\0\\
 #m062X/6-31+G(d) OPT Freq=noraman\\1-methylimidazole\\0,1\C,3.62630253
 57,-2.4075195522,-1.7069661549\N,2.3462947596,-1.9960508709,-1.1660910
 735\C,1.9361828135,-0.7077464281,-0.9191192628\C,0.666100201,-0.816948
 1559,-0.410858043\N,0.2883297173,-2.1335316555,-0.3397979195\C,1.31633
 21466,-2.8075644445,-0.7986844089\H,3.7820549181,-1.9668336741,-2.6950
 756393\H,4.4386186094,-2.1047730886,-1.0409899469\H,3.6326224382,-3.49
 49753418,-1.8004763737\H,2.5718396947,0.1412515427,-1.1243061027\H,0.0

 Normal termination of Gaussian 09 at Thu Mar 20 23:42:37 2025.

 ---------------------------------------------------------------------
 #N Geom=AllCheck Guess=TCheck SCRF=Check GenChk RM062X/6-31+G(d) Freq
 ---------------------------------------------------------------------

 Structure from the checkpoint file:  "/srv/scratch/z5358697/gauss/Gau-4057975.chk"
 -----------------
 1-methylimidazole
 -----------------
 Charge =  0 Multiplicity = 1

                         Standard orientation:
 ---------------------------------------------------------------------
 Center     Atomic      Atomic             Coordinates (Angstroms)
 Number     Number       Type             X           Y           Z
 ---------------------------------------------------------------------
      1          6           0        2.056928   -0.030135   -0.000975
      2          7           0        0.607765   -0.016265    0.001418
      3          6           0       -0.222931   -1.111189    0.000434
      4          6           0       -1.498614   -0.605229   -0.000618
      5          7           0       -1.471861    0.766061   -0.000553
      6          6           0       -0.198181    1.081376    0.000460
      7          1           0        2.434602   -0.554761    0.880475
      8          1           0        2.433747   -0.517383   -0.904100
      9          1           0        2.416077    1.000343    0.020729
     10          1           0        0.164399   -2.119620    0.001069
     11          1           0       -2.431458   -1.151106   -0.000896
     12          1           0        0.208088    2.085007    0.000864
 ---------------------------------------------------------------------

 SCF Done:  E(RM062X) =  -265.420302907     A.U. after    1 cycles
 Error termination via Lnk1e in /apps/z_install_tree/linux-rocky8-ivybridge/gcc-12.2.0/gaussian-09-D.01-wczn3gur5lpur3omlkzwa2l5ecyxp5ef/g09/l1002.exe at Thu Mar 20 23:43:42 2025.
