 Gaussian 09, Revision D.01,
 Gaussian 09:  ES64L-G09RevD.01 24-Apr-2013

 ---------------------------------
 #m062X/6-31+G(d) OPT Freq=noraman
 ---------------------------------

 ------------
 benzenethiol
 ------------
 Symbolic Z-matrix:
 Charge =  0 Multiplicity = 1

 SCF Done:  E(RM062X) =  -630.295723227     A.U. after   14 cycles
 SCF Done:  E(RM062X) =  -630.296255070     A.U. after   11 cycles
 SCF Done:  E(RM062X) =  -630.296310086     A.U. after   11 cycles
 SCF Done:  E(RM062X) =  -630.296313003     A.U. after   10 cycles
 SCF Done:  E(RM062X) =  -630.296314113     A.U. after   10 cycles
 SCF Done:  E(RM062X) =  -630.246303716     A.U. after   15 cycles
 SCF Done:  E(RM062X) =  -630.296314116     A.U. after    5 cycles
 SCF Done:  E(RM062X) =  -630.295277615     A.U. after   15 cycles
 SCF Done:  E(RM062X) =  -630.296316887     A.U. after    9 cycles
 SCF Done:  E(RM062X) =  -630.193669340     A.U. after   15 cycles
 SCF Done:  E(RM062X) =  -630.296321743     A.U. after    9 cycles
 SCF Done:  E(RM062X) =  -630.293840147     A.U. after   17 cycles
 SCF Done:  E(RM062X) =  -630.296319923     A.U. after   11 cycles
 SCF Done:  E(RM062X) =  -630.296324720     A.U. after    7 cycles
 SCF Done:  E(RM062X) =  -630.291846339     A.U. after   14 cycles
 SCF Done:  E(RM062X) =  -630.296324950     A.U. after    7 cycles
 SCF Done:  E(RM062X) =  -630.296190579     A.U. after   13 cycles
 SCF Done:  E(RM062X) =  -630.296327035     A.U. after   12 cycles
 SCF Done:  E(RM062X) =  -630.296328189     A.U. after   10 cycles
 Optimization completed.
    -- Stationary point found.

 1\1\GINC-KATANA1\FOpt\RM062X\6-31+G(d)\C6H6S1\Z5358697\21-Mar-2025\0\\
 #m062X/6-31+G(d) OPT Freq=noraman\\benzenethiol\\0,1\C,1.88493014,-1.0
 353701871,-0.1220100152\C,2.9181422234,-1.6349323266,0.5949817026\C,2.
 8865405641,-1.6692013491,1.9873690786\C,1.8147385121,-1.0956345928,2.6
 762396126\C,0.7771555207,-0.4926417134,1.9582627948\C,0.8152752306,-0.
 4658985507,0.5671778468\S,1.6962526198,-1.1010479981,4.4485923702\H,1.
 9130339371,-1.011639947,-1.2068890927\H,3.7576071058,-2.0828440573,0.0
 708206838\H,3.6975973928,-2.1435549888,2.5337040083\H,-0.0580135383,-0

 Normal termination of Gaussian 09 at Fri Mar 21 01:03:22 2025.

 ---------------------------------------------------------------------
 #N Geom=AllCheck Guess=TCheck SCRF=Check GenChk RM062X/6-31+G(d) Freq
 ---------------------------------------------------------------------

 Structure from the checkpoint file:  "/srv/scratch/z5358697/gauss/Gau-4065981.chk"
 ------------
 benzenethiol
 ------------
 Charge =  0 Multiplicity = 1

                         Standard orientation:
 ---------------------------------------------------------------------
 Center     Atomic      Atomic             Coordinates (Angstroms)
 Number     Number       Type             X           Y           Z
 ---------------------------------------------------------------------
      1          6           0       -2.291111    0.004213   -0.000172
      2          6           0       -1.585792    1.205714   -0.001099
      3          6           0       -0.192629    1.208710   -0.002564
      4          6           0        0.508665    0.000217    0.001170
      5          6           0       -0.197611   -1.206780    0.002948
      6          6           0       -1.589459   -1.200413    0.001033
      7         16           0        2.283023   -0.082934   -0.005215
      8          1           0       -3.376611    0.006363    0.000059
      9          1           0       -2.119722    2.151752   -0.002384
     10          1           0        0.344636    2.153503   -0.007050
     11          1           0        0.342571   -2.149884    0.008115
     12          1           0       -2.126661   -2.144490    0.002670
     13          1           0        2.495047    1.239736    0.074125
 ---------------------------------------------------------------------

 SCF Done:  E(RM062X) =  -630.296328189     A.U. after    1 cycles

 The electronic state is 1-A.
 Alpha  occ. eigenvalues --  -89.93516 -10.59883 -10.56668 -10.56479 -10.56477
 Alpha  occ. eigenvalues --  -10.56395 -10.55917  -8.28193  -6.20280  -6.20021
 Alpha  occ. eigenvalues --   -6.19592  -0.97710  -0.89014  -0.85410  -0.80020
 Alpha  occ. eigenvalues --   -0.70190  -0.67872  -0.59866  -0.54402  -0.53126
 Alpha  occ. eigenvalues --   -0.49991  -0.49024  -0.45666  -0.44199  -0.41436
 Alpha  occ. eigenvalues --   -0.39542  -0.36216  -0.31631  -0.27301
 Alpha virt. eigenvalues --    0.00631   0.01138   0.01266   0.02655   0.03397
 Alpha virt. eigenvalues --    0.04034   0.05014   0.05433   0.06530   0.07712
 Alpha virt. eigenvalues --    0.07775   0.09155   0.09216   0.09866   0.12234

 Mulliken charges:
               1
     1  C   -0.269046
     2  C   -0.099117
     3  C   -0.278995
     4  C    0.081575
     5  C   -0.336187
     6  C   -0.126310
     7  S   -0.114562
     8  H    0.208267
     9  H    0.209126
    10  H    0.197177
    11  H    0.212909
    12  H    0.209760
    13  H    0.105403
 Sum of Mulliken charges =   0.00000

 Dipole moment (field-independent basis, Debye):
    X=             -0.8981    Y=              0.9076    Z=              0.0543  Tot=              1.2780
 Quadrupole moment (field-independent basis, Debye-Ang):
   XX=            -46.4073   YY=            -42.5273   ZZ=            -54.6396
   XY=              3.0092   XZ=              0.1739   YZ=              0.1604

  Exact polarizability: 116.216   1.044  87.434   0.047   0.054  51.096
 Approx polarizability: 137.460   1.133 117.379   0.057   0.179  63.064

                      1                      2                      3
                      A                      A                      A
 Frequencies --    174.8865               226.2648               278.3808
 Red. masses --      4.7567                 1.0890                 4.3800
 Frc consts  --      0.0857                 0.0328                 0.2000
 IR Inten    --      0.0913                19.5770                 1.9920

                      4                      5                      6
                      A                      A                      A
 Frequencies --    410.0418               414.7751               471.2918
 Red. masses --      2.8126                 9.8868                 3.1747
 Frc consts  --      0.2786                 1.0021                 0.4155
 IR Inten    --      0.3995                 0.1947                11.5821

                      7                      8                      9
                      A                      A                      A
 Frequencies --    626.6629               691.5530               709.8785
 Red. masses --      6.4043                 2.6822                 6.6331
 Frc consts  --      1.4818                 0.7558                 1.9694
 IR Inten    --      0.1309                13.1677                12.8221

                     10                     11                     12
                      A                      A                      A
 Frequencies --    747.0092               852.7753               916.3538
 Red. masses --      1.3986                 1.2569                 1.3423
 Frc consts  --      0.4598                 0.5385                 0.6641
 IR Inten    --     72.4961                 0.0382                 0.9492

                     13                     14                     15
                      A                      A                      A
 Frequencies --    938.2020               990.1833              1014.2821
 Red. masses --      1.1331                 1.3727                 4.0358
 Frc consts  --      0.5876                 0.7930                 2.4462
 IR Inten    --     12.6494                 0.0114                 3.8911

                     16                     17                     18
                      A                      A                      A
 Frequencies --   1014.4543              1066.4202              1122.5406
 Red. masses --      1.4228                 2.7251                 1.4936
 Frc consts  --      0.8627                 1.8260                 1.1089
 IR Inten    --      0.5848                 8.5321                 3.7372

                     19                     20                     21
                      A                      A                      A
 Frequencies --   1137.7685              1185.9140              1216.8389
 Red. masses --      2.7386                 1.1049                 1.1204
 Frc consts  --      2.0888                 0.9155                 0.9774
 IR Inten    --     28.0244                 0.3264                 1.9085

                     22                     23                     24
                      A                      A                      A
 Frequencies --   1338.0062              1362.3991              1500.1036
 Red. masses --      2.5944                 1.8391                 2.3598
 Frc consts  --      2.7366                 2.0112                 3.1288
 IR Inten    --      3.1184                 0.1588                 9.0421

                     25                     26                     27
                      A                      A                      A
 Frequencies --   1534.5060              1671.5987              1682.0351
 Red. masses --      2.1774                 6.1490                 5.9374
 Frc consts  --      3.0209                10.1232                 9.8973
 IR Inten    --     33.7329                 1.0499                37.2865

                     28                     29                     30
                      A                      A                      A
 Frequencies --   2762.4996              3198.6658              3202.5444
 Red. masses --      1.0384                 1.0869                 1.0885
 Frc consts  --      4.6688                 6.5523                 6.5776
 IR Inten    --      5.9779                 3.7799                 0.3611

                     31                     32                     33
                      A                      A                      A
 Frequencies --   3212.2019              3218.4193              3229.9707
 Red. masses --      1.0919                 1.0954                 1.0989
 Frc consts  --      6.6378                 6.6852                 6.7546
 IR Inten    --      2.6257                17.7692                10.0716

 - Thermochemistry -
 -------------------
 Temperature   298.150 Kelvin.  Pressure   1.00000 Atm.
 Atom     1 has atomic number  6 and mass  12.00000

 Molecular mass:   110.01902 amu.
 Principal axes and moments of inertia in atomic units:
                           1         2         3
     Eigenvalues --   321.753881146.706071468.41293
           X            0.99992   0.01298   0.00057
           Y           -0.01298   0.99992   0.00056
           Z           -0.00056  -0.00057   1.00000
 This molecule is an asymmetric top.
 Rotational symmetry number  1.
 Rotational temperatures (Kelvin)      0.26919     0.07553     0.05898
 Rotational constants (GHZ):           5.60907     1.57385     1.22904
 Zero-point vibrational energy     263892.8 (Joules/Mol)
                                   63.07189 (Kcal/Mol)
 Warning -- explicit consideration of   6 degrees of freedom as
           vibrations may cause significant error
 Vibrational temperatures:    251.62   325.54   400.53   589.96   596.77
          (Kelvin)            678.08   901.63   994.99  1021.36  1074.78
                             1226.95  1318.43  1349.86  1424.65  1459.32
                             1459.57  1534.34  1615.08  1636.99  1706.26
                             1750.76  1925.09  1960.19  2158.31  2207.81
                             2405.05  2420.07  3974.62  4602.16  4607.74
                             4621.64  4630.58  4647.20

 Zero-point correction=                           0.100511 (Hartree/Particle)
 Thermal correction to Energy=                    0.106629
 Thermal correction to Enthalpy=                  0.107573
 Thermal correction to Gibbs Free Energy=         0.070276
 Sum of electronic and zero-point Energies=           -630.195817
 Sum of electronic and thermal Energies=              -630.189699
 Sum of electronic and thermal Enthalpies=            -630.188755
 Sum of electronic and thermal Free Energies=         -630.226052

                     E (Thermal)             CV                S
                      KCal/Mol        Cal/Mol-Kelvin    Cal/Mol-Kelvin
 Total                   66.911             23.232             78.498
 Electronic               0.000              0.000              0.000
 Translational            0.889              2.981             40.003
 Rotational               0.889              2.981             27.785
 Vibrational             65.133             17.271             10.711
 Vibration     1          0.627              1.873              2.382
 Vibration     2          0.650              1.801              1.908
 Vibration     3          0.679              1.714              1.544
 Vibration     4          0.774              1.448              0.926
 Vibration     5          0.778              1.438              0.910
 Vibration     6          0.828              1.314              0.734

 1\1\GINC-KATANA1\Freq\RM062X\6-31+G(d)\C6H6S1\Z5358697\21-Mar-2025\0\\
 #N Geom=AllCheck Guess=TCheck SCRF=Check GenChk RM062X/6-31+G(d) Freq\
 \benzenethiol\\0,1\C,1.88493014,-1.0353701871,-0.1220100152\C,2.918142
 2234,-1.6349323266,0.5949817026\C,2.8865405641,-1.6692013491,1.9873690
 786\C,1.8147385121,-1.0956345928,2.6762396126\C,0.7771555207,-0.492641
 7134,1.9582627948\C,0.8152752306,-0.4658985507,0.5671778468\S,1.696252
 6198,-1.1010479981,4.4485923702\H,1.9130339371,-1.011639947,-1.2068890
 927\H,3.7576071058,-2.0828440573,0.0708206838\H,3.6975973928,-2.143554

 Normal termination of Gaussian 09 at Fri Mar 21 01:07:23 2025.
