 Gaussian 09, Revision D.01,
 Gaussian 09:  ES64L-G09RevD.01 24-Apr-2013

 ---------------------------------
 #m062X/6-31+G(d) OPT Freq=noraman
 ---------------------------------

 -------
 ammonia
 -------
 Symbolic Z-matrix:
 Charge =  0 Multiplicity = 1

 SCF Done:  E(RM062X) =  -56.5198970334     A.U. after   13 cycles
 SCF Done:  E(RM062X) =  -56.5200372518     A.U. after    8 cycles
 SCF Done:  E(RM062X) =  -56.5200571084     A.U. after    8 cycles
 Optimization completed.
    -- Stationary point found.
 Normal termination of Gaussian 09 at Thu Mar 13 14:54:16 2025.

 ---------------------------------------------------------------------
 #N Geom=AllCheck Guess=TCheck SCRF=Check GenChk RM062X/6-31+G(d) Freq
 ---------------------------------------------------------------------

 Structure from the checkpoint file:  "/srv/scratch/z5358697/gauss/Gau-1773749.chk"
 -------
 ammonia
 -------
 Charge =  0 Multiplicity = 1

                         Standard orientation:
 ---------------------------------------------------------------------
 Center     Atomic      Atomic             Coordinates (Angstroms)
 Number     Number       Type             X           Y           Z
 ---------------------------------------------------------------------
      1          7           0        0.000025   -0.000036   -0.110642
      2          1           0        0.906685   -0.272813    0.258228
      3          1           0       -0.689864   -0.648407    0.258176
      4          1           0       -0.216998    0.921469    0.258092
 ---------------------------------------------------------------------

 SCF Done:  E(RM062X) =  -56.5200571084     A.U. after    1 cycles

 The electronic state is 1-A.
 Alpha  occ. eigenvalues --  -14.74347  -0.95708  -0.53555  -0.53546  -0.33328
 Alpha virt. eigenvalues --    0.05202   0.10817   0.10819   0.14548   0.24436
 Alpha virt. eigenvalues --    0.24440   0.29127   0.89796   0.89803   0.95324
 Alpha virt. eigenvalues --    1.01698   1.01709   1.16125   1.18910   1.72026

 Mulliken charges:
               1
     1  N   -1.123689
     2  H    0.374580
     3  H    0.374553
     4  H    0.374556
 Sum of Mulliken charges =   0.00000

 Dipole moment (field-independent basis, Debye):
    X=             -0.0003    Y=              0.0005    Z=              1.8663  Tot=              1.8663
 Quadrupole moment (field-independent basis, Debye-Ang):
   XX=             -6.2417   YY=             -6.2442   ZZ=             -9.7346
   XY=              0.0000   XZ=              0.0001   YZ=             -0.0001

  Exact polarizability:   9.920   0.001   9.915   0.005   0.002  11.024
 Approx polarizability:   9.935   0.000   9.930   0.000   0.000   9.749

                      1                      2                      3
                      A                      A                      A
 Frequencies --   1089.6150              1719.0449              1720.5358
 Red. masses --      1.1822                 1.0671                 1.0670
 Frc consts  --      0.8270                 1.8580                 1.8611
 IR Inten    --    250.3668                32.1835                32.2050

                      4                      5                      6
                      A                      A                      A
 Frequencies --   3505.6892              3642.7831              3650.2540
 Red. masses --      1.0256                 1.0911                 1.0911
 Frc consts  --      7.4264                 8.5307                 8.5654
 IR Inten    --      0.4470                 5.9902                 6.0819

 - Thermochemistry -
 -------------------
 Temperature   298.150 Kelvin.  Pressure   1.00000 Atm.
 Atom     1 has atomic number  7 and mass  14.00307

 Molecular mass:    17.02655 amu.
 Principal axes and moments of inertia in atomic units:
                           1         2         3
     Eigenvalues --     6.04476   6.04876   9.67789
           X            1.00000   0.00000   0.00001
           Y            0.00000   1.00000  -0.00002
           Z           -0.00001   0.00002   1.00000
 This molecule is an asymmetric top.
 Rotational symmetry number  1.
 Rotational temperatures (Kelvin)     14.32874    14.31926     8.94966
 Rotational constants (GHZ):         298.56294   298.36524   186.48094
 Zero-point vibrational energy      91681.3 (Joules/Mol)
                                   21.91236 (Kcal/Mol)
 Vibrational temperatures:   1567.71  2473.32  2475.46  5043.90  5241.15
          (Kelvin)           5251.89

 Zero-point correction=                           0.034920 (Hartree/Particle)
 Thermal correction to Energy=                    0.037782
 Thermal correction to Enthalpy=                  0.038726
 Thermal correction to Gibbs Free Energy=         0.015849
 Sum of electronic and zero-point Energies=            -56.485138
 Sum of electronic and thermal Energies=               -56.482275
 Sum of electronic and thermal Enthalpies=             -56.481331
 Sum of electronic and thermal Free Energies=          -56.504208

                     E (Thermal)             CV                S
                      KCal/Mol        Cal/Mol-Kelvin    Cal/Mol-Kelvin
 Total                   23.709              6.319             48.149
 Electronic               0.000              0.000              0.000
 Translational            0.889              2.981             34.441
 Rotational               0.889              2.981             13.634
 Vibrational             21.931              0.357              0.074

 Optimization completed.
    -- Stationary point found.
 Normal termination of Gaussian 09 at Thu Mar 13 14:54:21 2025.
