 Gaussian 09, Revision D.01,
 Gaussian 09:  ES64L-G09RevD.01 24-Apr-2013

 ---------------------------------
 #m062X/6-31+G(d) OPT Freq=noraman
 ---------------------------------

 ---------
 quinoline
 ---------
 Symbolic Z-matrix:
 Charge =  0 Multiplicity = 1

 SCF Done:  E(RM062X) =  -401.761282033     A.U. after   15 cycles
 SCF Done:  E(RM062X) =  -401.766806809     A.U. after   14 cycles
 SCF Done:  E(RM062X) =  -401.767273362     A.U. after   13 cycles
 SCF Done:  E(RM062X) =  -401.767310211     A.U. after   12 cycles
 SCF Done:  E(RM062X) =  -401.767313095     A.U. after   11 cycles
 Optimization completed.
    -- Stationary point found.

 1\1\GINC-KATANA2\FOpt\RM062X\6-31+G(d)\C9H7N1\Z5358697\18-Mar-2025\0\\
 #m062X/6-31+G(d) OPT Freq=noraman\\quinoline\\0,1\C,0.1301495197,2.106
 6789044,-0.4551983995\C,-0.5664836683,0.8841338952,-0.2736478723\C,-1.
 9272917753,0.8252788004,-0.4413309652\C,-2.6575421541,1.9895126563,-0.
 7994693707\C,-1.9591265587,3.2154375093,-0.9815391297\C,-0.5512309844,
 3.2465620471,-0.8013813695\C,-2.7205448926,4.3570068782,-1.3387318237\
 C,-4.0765363398,4.2359012595,-1.4918184245\C,-4.6728229514,2.963936583
 7,-1.2858226394\N,-4.0087502095,1.8825855719,-0.9550835273\H,1.2071223

 Normal termination of Gaussian 09 at Tue Mar 18 10:41:44 2025.

 ---------------------------------------------------------------------
 #N Geom=AllCheck Guess=TCheck SCRF=Check GenChk RM062X/6-31+G(d) Freq
 ---------------------------------------------------------------------

 Structure from the checkpoint file:  "/srv/scratch/z5358697/gauss/Gau-4160512.chk"
 ---------
 quinoline
 ---------
 Charge =  0 Multiplicity = 1

                         Standard orientation:
 ---------------------------------------------------------------------
 Center     Atomic      Atomic             Coordinates (Angstroms)
 Number     Number       Type             X           Y           Z
 ---------------------------------------------------------------------
      1          6           0       -2.408082    0.701298   -0.000002
      2          6           0       -2.393458   -0.717385   -0.000001
      3          6           0       -1.204400   -1.402602    0.000004
      4          6           0        0.029464   -0.699361    0.000006
      5          6           0        0.014928    0.723177    0.000002
      6          6           0       -1.230104    1.405446    0.000001
      7          6           0        1.265405    1.391632   -0.000001
      8          6           0        2.419136    0.652904    0.000006
      9          6           0        2.319289   -0.763399   -0.000017
     10          7           0        1.185973   -1.423170   -0.000003
     11          1           0       -3.357769    1.228062   -0.000017
     12          1           0       -3.333895   -1.260752    0.000003
     13          1           0       -1.165072   -2.487634    0.000007
     14          1           0       -1.232008    2.493073    0.000004
     15          1           0        1.290505    2.479198   -0.000007
     16          1           0        3.396517    1.124684    0.000018
     17          1           0        3.226845   -1.364709    0.000027
 ---------------------------------------------------------------------

 SCF Done:  E(RM062X) =  -401.767313095     A.U. after    1 cycles

 The electronic state is 1-A.
 Alpha  occ. eigenvalues --  -14.76665 -10.59409 -10.59339 -10.57889 -10.57370
 Alpha  occ. eigenvalues --  -10.56812 -10.56703 -10.56523 -10.56434 -10.55856
 Alpha  occ. eigenvalues --   -1.06192  -0.96066  -0.91526  -0.85465  -0.84323
 Alpha  occ. eigenvalues --   -0.73601  -0.72023  -0.69230  -0.61054  -0.59785
 Alpha  occ. eigenvalues --   -0.58527  -0.52973  -0.51563  -0.49816  -0.49179
 Alpha  occ. eigenvalues --   -0.48346  -0.47530  -0.42541  -0.41428  -0.41298
 Alpha  occ. eigenvalues --   -0.37231  -0.32694  -0.30708  -0.28872
 Alpha virt. eigenvalues --   -0.03022   0.00431   0.01514   0.02378   0.02978
 Alpha virt. eigenvalues --    0.03197   0.04134   0.04514   0.05978   0.06105
 Alpha virt. eigenvalues --    0.06639   0.07069   0.08736   0.08998   0.10301

 Mulliken charges:
               1
     1  C   -0.143130
     2  C   -0.273566
     3  C   -0.517895
     4  C   -1.485779
     5  C    1.428589
     6  C    0.062549
     7  C   -0.205097
     8  C   -0.217876
     9  C    0.007257
    10  N   -0.154310
    11  H    0.209751
    12  H    0.210969
    13  H    0.228942
    14  H    0.210725
    15  H    0.218666
    16  H    0.217548
    17  H    0.202657
 Sum of Mulliken charges =   0.00000

 Dipole moment (field-independent basis, Debye):
    X=             -0.1557    Y=              2.1449    Z=              0.0000  Tot=              2.1506
 Quadrupole moment (field-independent basis, Debye-Ang):
   XX=            -48.0524   YY=            -55.9800   ZZ=            -63.0008
   XY=              2.8461   XZ=              0.0001   YZ=             -0.0001

  Exact polarizability: 155.044   0.382 110.577   0.000   0.000  55.478
 Approx polarizability: 199.095  -0.650 153.091   0.000   0.000  72.374

                      1                      2                      3
                      A                      A                      A
 Frequencies --    172.2134               185.1173               382.1757
 Red. masses --      4.1395                 3.7136                 4.1586
 Frc consts  --      0.0723                 0.0750                 0.3579
 IR Inten    --      5.2733                 0.1987                 4.3594

                      4                      5                      6
                      A                      A                      A
 Frequencies --    401.5164               475.3226               490.3482
 Red. masses --      3.6378                 3.2018                 2.7979
 Frc consts  --      0.3455                 0.4262                 0.3964
 IR Inten    --      1.8311                 0.0001                 9.6089

                      7                      8                      9
                      A                      A                      A
 Frequencies --    527.8495               530.9320               619.6943
 Red. masses --      7.1105                 7.2083                 7.2234
 Frc consts  --      1.1673                 1.1972                 1.6344
 IR Inten    --      0.0364                 0.1192                 5.8815

                     10                     11                     12
                      A                      A                      A
 Frequencies --    643.3871               749.1232               785.0016
 Red. masses --      3.4043                 1.2268                 5.0181
 Frc consts  --      0.8303                 0.4056                 1.8219
 IR Inten    --      0.6575                 9.3491                 2.0725

                     13                     14                     15
                      A                      A                      A
 Frequencies --    797.5977               824.2373               828.3512
 Red. masses --      3.3140                 1.3441                 5.5346
 Frc consts  --      1.2421                 0.5380                 2.2375
 IR Inten    --      7.8482                97.9941                 0.8860

                     16                     17                     18
                      A                      A                      A
 Frequencies --    889.7510               952.0946               987.2944
 Red. masses --      1.5586                 5.4854                 1.3283
 Frc consts  --      0.7270                 2.9297                 0.7628
 IR Inten    --      0.0220                 3.3727                 0.7733

                     19                     20                     21
                      A                      A                      A
 Frequencies --    993.1021              1015.3058              1019.3664
 Red. masses --      1.3796                 1.3813                 1.3112
 Frc consts  --      0.8017                 0.8389                 0.8027
 IR Inten    --      0.6291                 2.7099                 0.0388

                     22                     23                     24
                      A                      A                      A
 Frequencies --   1047.5143              1064.7152              1149.9547
 Red. masses --      2.4524                 2.2057                 1.4831
 Frc consts  --      1.5855                 1.4732                 1.1555
 IR Inten    --      1.8182                 4.5099                 9.1816

                     25                     26                     27
                      A                      A                      A
 Frequencies --   1171.6896              1174.5443              1241.0466
 Red. masses --      1.2779                 1.1531                 2.0078
 Frc consts  --      1.0336                 0.9372                 1.8220
 IR Inten    --      3.3742                 0.3450                 0.9852

                     28                     29                     30
                      A                      A                      A
 Frequencies --   1276.2109              1291.0696              1387.1321
 Red. masses --      1.8499                 1.6361                 3.2073
 Frc consts  --      1.7752                 1.6068                 3.6361
 IR Inten    --      0.5290                 1.0841                 8.9193

                     31                     32                     33
                      A                      A                      A
 Frequencies --   1421.9518              1437.7402              1487.8272
 Red. masses --      2.6818                 2.4014                 2.2903
 Frc consts  --      3.1949                 2.9246                 2.9871
 IR Inten    --      5.3137                 3.2315                 2.4229

                     34                     35                     36
                      A                      A                      A
 Frequencies --   1522.4972              1568.7546              1658.2931
 Red. masses --      2.8671                 3.7945                 7.4773
 Frc consts  --      3.9156                 5.5019                12.1149
 IR Inten    --      1.5061                29.6101                15.3589

                     37                     38                     39
                      A                      A                      A
 Frequencies --   1689.6713              1714.7481              3195.1713
 Red. masses --      5.9115                 6.6464                 1.0881
 Frc consts  --      9.9438                11.5143                 6.5450
 IR Inten    --     11.5910                12.1307                 2.7819

                     40                     41                     42
                      A                      A                      A
 Frequencies --   3197.6688              3204.8470              3210.0513
 Red. masses --      1.0883                 1.0911                 1.0898
 Frc consts  --      6.5562                 6.6029                 6.6161
 IR Inten    --      3.7287                22.4540                 7.3418

                     43                     44                     45
                      A                      A                      A
 Frequencies --   3222.3302              3226.7451              3233.8098
 Red. masses --      1.0946                 1.0977                 1.0971
 Frc consts  --      6.6963                 6.7337                 6.7600
 IR Inten    --     11.9099                14.1239                 7.0366

 - Thermochemistry -
 -------------------
 Temperature   298.150 Kelvin.  Pressure   1.00000 Atm.
 Atom     1 has atomic number  6 and mass  12.00000

 Molecular mass:   129.05785 amu.
 Principal axes and moments of inertia in atomic units:
                           1         2         3
     Eigenvalues --   571.903411417.253961989.15737
           X            0.99994   0.01051   0.00000
           Y           -0.01051   0.99994   0.00000
           Z            0.00000   0.00000   1.00000
 This molecule is an asymmetric top.
 Rotational symmetry number  1.
 Warning -- assumption of classical behavior for rotation
           may cause significant error
 Rotational temperatures (Kelvin)      0.15145     0.06111     0.04354
 Rotational constants (GHZ):           3.15567     1.27341     0.90729
 Zero-point vibrational energy     359273.1 (Joules/Mol)
                                   85.86832 (Kcal/Mol)
 Warning -- explicit consideration of   9 degrees of freedom as
           vibrations may cause significant error
 Vibrational temperatures:    247.78   266.34   549.86   577.69   683.88
          (Kelvin)            705.50   759.46   763.89   891.60   925.69
                             1077.82  1129.44  1147.56  1185.89  1191.81
                             1280.15  1369.85  1420.49  1428.85  1460.80
                             1466.64  1507.14  1531.89  1654.53  1685.80
                             1689.91  1785.59  1836.18  1857.56  1995.77
                             2045.87  2068.58  2140.65  2190.53  2257.09
                             2385.91  2431.06  2467.14  4597.13  4600.73
                             4611.05  4618.54  4636.21  4642.56  4652.73

 Zero-point correction=                           0.136840 (Hartree/Particle)
 Thermal correction to Energy=                    0.143506
 Thermal correction to Enthalpy=                  0.144450
 Thermal correction to Gibbs Free Energy=         0.105694
 Sum of electronic and zero-point Energies=           -401.630473
 Sum of electronic and thermal Energies=              -401.623807
 Sum of electronic and thermal Enthalpies=            -401.622863
 Sum of electronic and thermal Free Energies=         -401.661619

                     E (Thermal)             CV                S
                      KCal/Mol        Cal/Mol-Kelvin    Cal/Mol-Kelvin
 Total                   90.051             27.719             81.570
 Electronic               0.000              0.000              0.000
 Translational            0.889              2.981             40.478
 Rotational               0.889              2.981             28.868
 Vibrational             88.274             21.757             12.224
 Vibration     1          0.626              1.877              2.411
 Vibration     2          0.631              1.860              2.276
 Vibration     3          0.752              1.508              1.031
 Vibration     4          0.767              1.467              0.957
 Vibration     5          0.832              1.305              0.723
 Vibration     6          0.846              1.271              0.683
 Vibration     7          0.883              1.188              0.592
 Vibration     8          0.886              1.182              0.585
 Vibration     9          0.980              0.990              0.417

 Optimization completed.
    -- Stationary point found.

 1\1\GINC-KATANA2\Freq\RM062X\6-31+G(d)\C9H7N1\Z5358697\18-Mar-2025\0\\
 #N Geom=AllCheck Guess=TCheck SCRF=Check GenChk RM062X/6-31+G(d) Freq\
 \quinoline\\0,1\C,0.1301495197,2.1066789044,-0.4551983995\C,-0.5664836
 683,0.8841338952,-0.2736478723\C,-1.9272917753,0.8252788004,-0.4413309
 652\C,-2.6575421541,1.9895126563,-0.7994693707\C,-1.9591265587,3.21543
 75093,-0.9815391297\C,-0.5512309844,3.2465620471,-0.8013813695\C,-2.72
 05448926,4.3570068782,-1.3387318237\C,-4.0765363398,4.2359012595,-1.49
 18184245\C,-4.6728229514,2.9639365837,-1.2858226394\N,-4.0087502095,1.

 Normal termination of Gaussian 09 at Tue Mar 18 10:52:16 2025.
