 Gaussian 09, Revision D.01,
 Gaussian 09:  ES64L-G09RevD.01 24-Apr-2013

 ---------------------------------
 #m062X/6-31+G(d) OPT Freq=noraman
 ---------------------------------

 ----------------
 3-methylpyridine
 ----------------
 Symbolic Z-matrix:
 Charge =  0 Multiplicity = 1

 SCF Done:  E(RM062X) =  -287.476152785     A.U. after   13 cycles
 SCF Done:  E(RM062X) =  -287.477514025     A.U. after   12 cycles
 SCF Done:  E(RM062X) =  -287.477594502     A.U. after   11 cycles
 SCF Done:  E(RM062X) =  -287.477600624     A.U. after   10 cycles
 SCF Done:  E(RM062X) =  -287.477607277     A.U. after   10 cycles
 SCF Done:  E(RM062X) =  -287.477618769     A.U. after   11 cycles
 SCF Done:  E(RM062X) =  -287.477637198     A.U. after   11 cycles
 SCF Done:  E(RM062X) =  -287.477648002     A.U. after   10 cycles
 SCF Done:  E(RM062X) =  -287.477683046     A.U. after   11 cycles
 SCF Done:  E(RM062X) =  -287.477708002     A.U. after   12 cycles
 SCF Done:  E(RM062X) =  -287.477708711     A.U. after    9 cycles
 SCF Done:  E(RM062X) =  -287.477709142     A.U. after   10 cycles
 SCF Done:  E(RM062X) =  -287.477707855     A.U. after   10 cycles
 SCF Done:  E(RM062X) =  -287.477709558     A.U. after   10 cycles
 SCF Done:  E(RM062X) =  -287.477709514     A.U. after    7 cycles
 Optimization completed on the basis of negligible forces.
    -- Stationary point found.

 1\1\GINC-KATANA1\FOpt\RM062X\6-31+G(d)\C6H7N1\Z5358697\21-Mar-2025\0\\
 #m062X/6-31+G(d) OPT Freq=noraman\\3-methylpyridine\\0,1\C,2.900202756
 1,-0.2667371709,3.6636180485\C,1.6504939609,-0.6106110082,2.8970805546
 \C,1.4135678241,-0.1139892805,1.6135455672\C,0.2461326887,-0.468495003
 5,0.9478605328\C,-0.6554763635,-1.3153597997,1.5920265555\N,-0.4539227
 742,-1.8019213768,2.8168021068\C,0.6729847859,-1.4493831014,3.43917537
 23\H,3.7900261136,-0.6663089142,3.1654748931\H,3.0265066603,0.81767805
 62,3.746910122\H,2.8675468926,-0.6812346335,4.6749638869\H,2.140160149

 Normal termination of Gaussian 09 at Fri Mar 21 13:48:47 2025.

 ---------------------------------------------------------------------
 #N Geom=AllCheck Guess=TCheck SCRF=Check GenChk RM062X/6-31+G(d) Freq
 ---------------------------------------------------------------------

 Structure from the checkpoint file:  "/srv/scratch/z5358697/gauss/Gau-11015.chk"
 ----------------
 3-methylpyridine
 ----------------
 Charge =  0 Multiplicity = 1

                         Standard orientation:
 ---------------------------------------------------------------------
 Center     Atomic      Atomic             Coordinates (Angstroms)
 Number     Number       Type             X           Y           Z
 ---------------------------------------------------------------------
      1          6           0       -2.398226    0.015562    0.002228
      2          6           0       -0.892381    0.019195   -0.002331
      3          6           0       -0.158656    1.207419   -0.001946
      4          6           0        1.230158    1.153525    0.000410
      5          6           0        1.846914   -0.097330    0.002041
      6          7           0        1.170059   -1.245940    0.000377
      7          6           0       -0.162672   -1.172633   -0.002167
      8          1           0       -2.790122    0.450930    0.927680
      9          1           0       -2.797021    0.600165   -0.833265
     10          1           0       -2.789084   -1.002254   -0.081281
     11          1           0       -0.675049    2.165511   -0.004218
     12          1           0        1.828532    2.059211    0.000091
     13          1           0        2.931434   -0.180188    0.003895
     14          1           0       -0.689926   -2.126225   -0.004945
 ---------------------------------------------------------------------

 SCF Done:  E(RM062X) =  -287.477709514     A.U. after    1 cycles

 The electronic state is 1-A.
 Alpha  occ. eigenvalues --  -14.76385 -10.58587 -10.58522 -10.57316 -10.57237
 Alpha  occ. eigenvalues --  -10.56495 -10.55535  -1.05549  -0.92038  -0.87633
 Alpha  occ. eigenvalues --   -0.79625  -0.71816  -0.69283  -0.59984  -0.56188
 Alpha  occ. eigenvalues --   -0.53108  -0.50437  -0.48409  -0.47337  -0.46166
 Alpha  occ. eigenvalues --   -0.45830  -0.42093  -0.34291  -0.32262  -0.30992
 Alpha virt. eigenvalues --   -0.00041   0.01510   0.01730   0.02867   0.03673
 Alpha virt. eigenvalues --    0.04927   0.05019   0.05559   0.06962   0.07991
 Alpha virt. eigenvalues --    0.08361   0.08629   0.09505   0.12896   0.12942

 Mulliken charges:
               1
     1  C   -0.967447
     2  C    0.368218
     3  C    0.071738
     4  C    0.054062
     5  C   -0.293405
     6  N   -0.148550
     7  C   -0.594479
     8  H    0.236539
     9  H    0.231011
    10  H    0.217652
    11  H    0.211030
    12  H    0.215058
    13  H    0.203280
    14  H    0.195293
 Sum of Mulliken charges =   0.00000

 Dipole moment (field-independent basis, Debye):
    X=             -1.5413    Y=              2.1054    Z=              0.0090  Tot=              2.6093
 Quadrupole moment (field-independent basis, Debye-Ang):
   XX=            -38.3313   YY=            -41.9692   ZZ=            -44.6720
   XY=              4.0076   XZ=             -0.0111   YZ=              0.0000

  Exact polarizability:  91.477   1.132  78.216  -0.075   0.010  44.592
 Approx polarizability: 108.692   0.403 103.595  -0.061   0.005  55.507

                      1                      2                      3
                      A                      A                      A
 Frequencies --     71.1713               212.4367               333.7007
 Red. masses --      1.0532                 2.7605                 2.5670
 Frc consts  --      0.0031                 0.0734                 0.1684
 IR Inten    --      0.0369                 1.2825                 0.7596

                      4                      5                      6
                      A                      A                      A
 Frequencies --    411.9443               463.2100               543.4900
 Red. masses --      3.1120                 3.0716                 5.1119
 Frc consts  --      0.3111                 0.3883                 0.8896
 IR Inten    --      3.0510                 0.7515                 0.5187

                      7                      8                      9
                      A                      A                      A
 Frequencies --    640.7826               728.5131               811.0021
 Red. masses --      7.3337                 2.2861                 1.4318
 Frc consts  --      1.7742                 0.7149                 0.5548
 IR Inten    --      3.5574                26.4457                27.4007

                     10                     11                     12
                      A                      A                      A
 Frequencies --    826.7276               953.7001               971.2915
 Red. masses --      5.3512                 1.3158                 1.3346
 Frc consts  --      2.1549                 0.7051                 0.7418
 IR Inten    --      1.0941                 0.0452                 0.0098

                     13                     14                     15
                      A                      A                      A
 Frequencies --   1010.1580              1021.2120              1046.7854
 Red. masses --      1.4570                 1.3822                 4.1571
 Frc consts  --      0.8760                 0.8493                 2.6838
 IR Inten    --      0.0900                 0.0248                 7.3581

                     16                     17                     18
                      A                      A                      A
 Frequencies --   1074.6857              1087.4884              1154.6790
 Red. masses --      1.5472                 2.3227                 1.3153
 Frc consts  --      1.0528                 1.6184                 1.0333
 IR Inten    --      3.7124                 0.9539                 7.5749

                     19                     20                     21
                      A                      A                      A
 Frequencies --   1240.8301              1270.8087              1305.7767
 Red. masses --      1.5653                 2.1607                 6.1314
 Frc consts  --      1.4200                 2.0559                 6.1596
 IR Inten    --      7.1491                 0.4714                 1.7567

                     22                     23                     24
                      A                      A                      A
 Frequencies --   1374.9594              1437.8736              1476.6285
 Red. masses --      1.2409                 1.2826                 2.0021
 Frc consts  --      1.3822                 1.5624                 2.5720
 IR Inten    --      1.2039                 1.7407                14.0539

                     25                     26                     27
                      A                      A                      A
 Frequencies --   1510.8516              1521.1865              1542.4471
 Red. masses --      1.0453                 1.2288                 2.2698
 Frc consts  --      1.4058                 1.6753                 3.1817
 IR Inten    --      8.2163                22.4873                12.8808

                     28                     29                     30
                      A                      A                      A
 Frequencies --   1669.8534              1690.2792              3075.1998
 Red. masses --      5.7322                 6.4789                 1.0365
 Frc consts  --      9.4174                10.9060                 5.7750
 IR Inten    --     17.5928                 1.9789                21.8654

                     31                     32                     33
                      A                      A                      A
 Frequencies --   3140.6672              3157.7770              3183.4651
 Red. masses --      1.1017                 1.1020                 1.0908
 Frc consts  --      6.4024                 6.4743                 6.5132
 IR Inten    --     10.1428                10.3755                25.6150

                     34                     35                     36
                      A                      A                      A
 Frequencies --   3192.8250              3205.4095              3245.1178
 Red. masses --      1.0910                 1.0907                 1.0959
 Frc consts  --      6.5528                 6.6028                 6.7998
 IR Inten    --      7.6522                15.0189                11.3879

 - Thermochemistry -
 -------------------
 Temperature   298.150 Kelvin.  Pressure   1.00000 Atm.
 Atom     1 has atomic number  6 and mass  12.00000

 Molecular mass:    93.05785 amu.
 Principal axes and moments of inertia in atomic units:
                           1         2         3
     Eigenvalues --   315.82668 697.751641002.33601
           X            0.99961   0.02785  -0.00007
           Y           -0.02785   0.99961   0.00001
           Z            0.00007   0.00000   1.00000
 This molecule is an asymmetric top.
 Rotational symmetry number  1.
 Rotational temperatures (Kelvin)      0.27424     0.12413     0.08641
 Rotational constants (GHZ):           5.71434     2.58651     1.80054
 Zero-point vibrational energy     308666.1 (Joules/Mol)
                                   73.77296 (Kcal/Mol)
 Warning -- explicit consideration of   6 degrees of freedom as
           vibrations may cause significant error
 Vibrational temperatures:    102.40   305.65   480.12   592.70   666.46
          (Kelvin)            781.96   921.94  1048.17  1166.85  1189.48
                             1372.16  1397.47  1453.39  1469.29  1506.09
                             1546.23  1564.65  1661.32  1785.28  1828.41
                             1878.72  1978.26  2068.78  2124.54  2173.78
                             2188.65  2219.23  2402.54  2431.93  4424.52
                             4518.71  4543.33  4580.29  4593.76  4611.86
                             4668.99

 Zero-point correction=                           0.117565 (Hartree/Particle)
 Thermal correction to Energy=                    0.123576
 Thermal correction to Enthalpy=                  0.124520
 Thermal correction to Gibbs Free Energy=         0.087508
 Sum of electronic and zero-point Energies=           -287.360145
 Sum of electronic and thermal Energies=              -287.354134
 Sum of electronic and thermal Enthalpies=            -287.353189
 Sum of electronic and thermal Free Energies=         -287.390202

                     E (Thermal)             CV                S
                      KCal/Mol        Cal/Mol-Kelvin    Cal/Mol-Kelvin
 Total                   77.545             22.035             77.899
 Electronic               0.000              0.000              0.000
 Translational            0.889              2.981             39.504
 Rotational               0.889              2.981             26.893
 Vibrational             75.768             16.073             11.502
 Vibration     1          0.598              1.968              4.121
 Vibration     2          0.643              1.822              2.023
 Vibration     3          0.715              1.608              1.242
 Vibration     4          0.776              1.444              0.920
 Vibration     5          0.821              1.332              0.757
 Vibration     6          0.899              1.154              0.558

 Optimization completed on the basis of negligible forces.
    -- Stationary point found.

 1\1\GINC-KATANA1\Freq\RM062X\6-31+G(d)\C6H7N1\Z5358697\21-Mar-2025\0\\
 #N Geom=AllCheck Guess=TCheck SCRF=Check GenChk RM062X/6-31+G(d) Freq\
 \3-methylpyridine\\0,1\C,2.9002027561,-0.2667371709,3.6636180485\C,1.6
 504939609,-0.6106110082,2.8970805546\C,1.4135678241,-0.1139892805,1.61
 35455672\C,0.2461326887,-0.4684950035,0.9478605328\C,-0.6554763635,-1.
 3153597997,1.5920265555\N,-0.4539227742,-1.8019213768,2.8168021068\C,0
 .6729847859,-1.4493831014,3.4391753723\H,3.7900261136,-0.6663089142,3.
 1654748931\H,3.0265066603,0.8176780562,3.746910122\H,2.8675468926,-0.6

 Normal termination of Gaussian 09 at Fri Mar 21 13:52:50 2025.
