 Gaussian 09, Revision D.01,
 Gaussian 09:  ES64L-G09RevD.01 24-Apr-2013

 ---------------------------------
 #m062X/6-31+G(d) OPT Freq=noraman
 ---------------------------------

 ---------------
 3-chloroaniline
 ---------------
 Symbolic Z-matrix:
 Charge =  0 Multiplicity = 1

 SCF Done:  E(RM062X) =  -747.047100873     A.U. after   15 cycles
 SCF Done:  E(RM062X) =  -747.049090259     A.U. after   12 cycles
 SCF Done:  E(RM062X) =  -747.049440506     A.U. after   12 cycles
 SCF Done:  E(RM062X) =  -747.049613773     A.U. after   12 cycles
 SCF Done:  E(RM062X) =  -747.014538418     A.U. after   15 cycles
 SCF Done:  E(RM062X) =  -747.049649447     A.U. after    9 cycles
 SCF Done:  E(RM062X) =  -747.009885557     A.U. after   15 cycles
 SCF Done:  E(RM062X) =  -747.049651351     A.U. after    7 cycles
 SCF Done:  E(RM062X) =  -747.039822212     A.U. after   15 cycles
 SCF Done:  E(RM062X) =  -747.049667286     A.U. after    9 cycles
 SCF Done:  E(RM062X) =  -747.047906664     A.U. after   15 cycles
 SCF Done:  E(RM062X) =  -747.050382069     A.U. after   12 cycles
 SCF Done:  E(RM062X) =  -747.050531065     A.U. after   13 cycles
 SCF Done:  E(RM062X) =  -747.050611541     A.U. after   13 cycles
 SCF Done:  E(RM062X) =  -747.050648733     A.U. after   12 cycles
 SCF Done:  E(RM062X) =  -747.050657669     A.U. after   12 cycles
 SCF Done:  E(RM062X) =  -747.050660203     A.U. after   10 cycles
 Optimization completed.
    -- Stationary point found.
 Normal termination of Gaussian 09 at Fri Mar 21 14:06:42 2025.

 ---------------------------------------------------------------------
 #N Geom=AllCheck Guess=TCheck SCRF=Check GenChk RM062X/6-31+G(d) Freq
 ---------------------------------------------------------------------

 Structure from the checkpoint file:  "/srv/scratch/z5358697/gauss/Gau-4131340.chk"
 ---------------
 3-chloroaniline
 ---------------
 Charge =  0 Multiplicity = 1

                         Standard orientation:
 ---------------------------------------------------------------------
 Center     Atomic      Atomic             Coordinates (Angstroms)
 Number     Number       Type             X           Y           Z
 ---------------------------------------------------------------------
      1          6           0       -0.723085    1.844028    0.003957
      2          6           0       -1.772987    0.933698   -0.003311
      3          6           0       -1.512770   -0.443935   -0.007752
      4          6           0       -0.183094   -0.884610   -0.007610
      5          6           0        0.845271    0.048158   -0.000492
      6          6           0        0.604268    1.417883    0.006220
      7         17           0        2.494798   -0.528437    0.002291
      8          7           0       -2.557753   -1.364457   -0.074415
      9          1           0       -0.940778    2.908142    0.008206
     10          1           0       -2.801540    1.284745   -0.012802
     11          1           0        0.046756   -1.946004   -0.019965
     12          1           0        1.429022    2.121284    0.012726
     13          1           0       -3.445767   -1.032953    0.280265
     14          1           0       -2.340615   -2.291915    0.267457
 ---------------------------------------------------------------------

 SCF Done:  E(RM062X) =  -747.050660203     A.U. after    1 cycles

 The electronic state is 1-A.
 Alpha  occ. eigenvalues -- -102.66772 -14.78232 -10.61844 -10.60925 -10.56694
 Alpha  occ. eigenvalues --  -10.56274 -10.55838 -10.55761  -9.81448  -7.53852
 Alpha  occ. eigenvalues --   -7.53190  -7.53176  -1.04355  -0.98857  -0.92698
 Alpha  occ. eigenvalues --   -0.84532  -0.82453  -0.70660  -0.68944  -0.60615
 Alpha  occ. eigenvalues --   -0.59619  -0.56271  -0.51695  -0.51142  -0.49642
 Alpha  occ. eigenvalues --   -0.47909  -0.44020  -0.42329  -0.42060  -0.37573
 Alpha  occ. eigenvalues --   -0.37271  -0.30452  -0.27022
 Alpha virt. eigenvalues --    0.00864   0.00981   0.02486   0.02694   0.02893
 Alpha virt. eigenvalues --    0.03928   0.05108   0.06426   0.06954   0.07364
 Alpha virt. eigenvalues --    0.09151   0.09769   0.10479   0.10613   0.12563

 Mulliken charges:
               1
     1  C   -0.396065
     2  C   -0.008796
     3  C    0.148261
     4  C   -0.129873
     5  C   -0.087020
     6  C   -0.462949
     7  Cl   0.152982
     8  N   -0.842330
     9  H    0.211561
    10  H    0.196704
    11  H    0.215087
    12  H    0.223755
    13  H    0.389283
    14  H    0.389401
 Sum of Mulliken charges =   0.00000

 Dipole moment (field-independent basis, Debye):
    X=             -2.7722    Y=             -0.2056    Z=              1.0556  Tot=              2.9735
 Quadrupole moment (field-independent basis, Debye-Ang):
   XX=            -49.5813   YY=            -46.7868   ZZ=            -59.1195
   XY=              2.4908   XZ=             -3.4693   YZ=             -2.0484

  Exact polarizability: 117.402   1.655  96.139   0.169   0.270  50.420
 Approx polarizability: 139.136   1.923 123.067   0.513   0.584  63.164

                      1                      2                      3
                      A                      A                      A
 Frequencies --    182.7095               224.0610               245.6522
 Red. masses --      5.3439                 3.6122                 5.9613
 Frc consts  --      0.1051                 0.1068                 0.2120
 IR Inten    --      1.9568                 5.0741                 0.2668

                      4                      5                      6
                      A                      A                      A
 Frequencies --    312.3246               411.8895               429.2529
 Red. masses --      1.0551                 6.2085                 4.0778
 Frc consts  --      0.0606                 0.6206                 0.4427
 IR Inten    --     20.4388                 4.4734                 0.1898

                      7                      8                      9
                      A                      A                      A
 Frequencies --    452.1401               535.7010               569.7709
 Red. masses --      2.9339                 6.4410                 2.1464
 Frc consts  --      0.3534                 1.0891                 0.4105
 IR Inten    --     12.3501                13.9173               125.6562

                     10                     11                     12
                      A                      A                      A
 Frequencies --    622.9553               690.0225               704.2176
 Red. masses --      1.9944                 2.2576                 6.4290
 Frc consts  --      0.4560                 0.6333                 1.8785
 IR Inten    --    212.7955                10.7855                15.3084

                     13                     14                     15
                      A                      A                      A
 Frequencies --    789.5619               878.6787               889.7348
 Red. masses --      1.4177                 1.4832                 1.4263
 Frc consts  --      0.5207                 0.6747                 0.6653
 IR Inten    --     59.9905                25.3773                 3.1733

                     16                     17                     18
                      A                      A                      A
 Frequencies --    916.7320               996.6080              1011.6455
 Red. masses --      4.5587                 1.2975                 5.6656
 Frc consts  --      2.2572                 0.7593                 3.4163
 IR Inten    --     51.5663                 0.0446                 6.2638

                     19                     20                     21
                      A                      A                      A
 Frequencies --   1101.3334              1121.0177              1150.3197
 Red. masses --      1.5223                 1.9474                 1.2483
 Frc consts  --      1.0879                 1.4419                 0.9732
 IR Inten    --      1.3805                26.1646                 2.6299

                     22                     23                     24
                      A                      A                      A
 Frequencies --   1195.0803              1306.1608              1345.2764
 Red. masses --      1.1074                 1.8492                 1.9811
 Frc consts  --      0.9319                 1.8588                 2.1124
 IR Inten    --      4.5607                26.5190                19.3354

                     25                     26                     27
                      A                      A                      A
 Frequencies --   1361.6915              1509.6732              1544.4520
 Red. masses --      4.5601                 3.0008                 2.7674
 Frc consts  --      4.9818                 4.0296                 3.8893
 IR Inten    --     16.0613                15.0724                90.9938

                     28                     29                     30
                      A                      A                      A
 Frequencies --   1668.7156              1687.2225              1706.3666
 Red. masses --      6.5196                 1.8809                 2.0376
 Frc consts  --     10.6964                 3.1547                 3.4956
 IR Inten    --     51.6319                15.1798               241.9906

                     31                     32                     33
                      A                      A                      A
 Frequencies --   3208.5710              3225.3704              3227.7939
 Red. masses --      1.0883                 1.0926                 1.0923
 Frc consts  --      6.6012                 6.6968                 6.7048
 IR Inten    --      7.7345                 9.9060                 1.9038

                     34                     35                     36
                      A                      A                      A
 Frequencies --   3242.3789              3591.1517              3693.3821
 Red. masses --      1.0963                 1.0488                 1.0987
 Frc consts  --      6.7904                 7.9690                 8.8304
 IR Inten    --      1.6347                27.6081                22.5823

 - Thermochemistry -
 -------------------
 Temperature   298.150 Kelvin.  Pressure   1.00000 Atm.
 Atom     1 has atomic number  6 and mass  12.00000

 Molecular mass:   127.01888 amu.
 Principal axes and moments of inertia in atomic units:
                           1         2         3
     Eigenvalues --   528.383011506.829902033.64851
           X            0.99970   0.02415  -0.00385
           Y           -0.02418   0.99969  -0.00569
           Z            0.00371   0.00579   0.99998
 This molecule is an asymmetric top.
 Rotational symmetry number  1.
 Warning -- assumption of classical behavior for rotation
           may cause significant error
 Rotational temperatures (Kelvin)      0.16392     0.05748     0.04259
 Rotational constants (GHZ):           3.41559     1.19771     0.88744
 Zero-point vibrational energy     285606.1 (Joules/Mol)
                                   68.26150 (Kcal/Mol)
 Warning -- explicit consideration of   9 degrees of freedom as
           vibrations may cause significant error
 Vibrational temperatures:    262.88   322.37   353.44   449.36   592.62
          (Kelvin)            617.60   650.53   770.75   819.77   896.29
                              992.79  1013.21  1136.00  1264.22  1280.13
                             1318.97  1433.89  1455.53  1584.57  1612.89
                             1655.05  1719.45  1879.27  1935.55  1959.17
                             2172.08  2222.12  2400.91  2427.53  2455.08
                             4616.41  4640.58  4644.07  4665.05  5166.86
                             5313.95

 Zero-point correction=                           0.108782 (Hartree/Particle)
 Thermal correction to Energy=                    0.115667
 Thermal correction to Enthalpy=                  0.116611
 Thermal correction to Gibbs Free Energy=         0.077427
 Sum of electronic and zero-point Energies=           -746.941879
 Sum of electronic and thermal Energies=              -746.934993
 Sum of electronic and thermal Enthalpies=            -746.934049
 Sum of electronic and thermal Free Energies=         -746.973233

                     E (Thermal)             CV                S
                      KCal/Mol        Cal/Mol-Kelvin    Cal/Mol-Kelvin
 Total                   72.582             26.747             82.470
 Electronic               0.000              0.000              0.000
 Translational            0.889              2.981             40.431
 Rotational               0.889              2.981             28.872
 Vibrational             70.805             20.785             13.166
 Vibration     1          0.630              1.863              2.301
 Vibration     2          0.649              1.804              1.926
 Vibration     3          0.660              1.770              1.762
 Vibration     4          0.701              1.650              1.350
 Vibration     5          0.776              1.444              0.920
 Vibration     6          0.791              1.407              0.861
 Vibration     7          0.811              1.356              0.789
 Vibration     8          0.891              1.171              0.575
 Vibration     9          0.926              1.097              0.505

 Optimization completed.
    -- Stationary point found.
 Normal termination of Gaussian 09 at Fri Mar 21 14:12:22 2025.
