 Gaussian 09, Revision D.01,
 Gaussian 09:  ES64L-G09RevD.01 24-Apr-2013

 ---------------------------------
 #m062X/6-31+G(d) OPT Freq=noraman
 ---------------------------------

 --------------------
 carbon tetrachloride
 --------------------
 Symbolic Z-matrix:
 Charge =  0 Multiplicity = 1

 SCF Done:  E(RM062X) =  -1878.71814560     A.U. after   10 cycles
 SCF Done:  E(RM062X) =  -1878.71827812     A.U. after    9 cycles
 SCF Done:  E(RM062X) =  -1878.71815293     A.U. after    9 cycles
 SCF Done:  E(RM062X) =  -1878.71813681     A.U. after    9 cycles
 SCF Done:  E(RM062X) =  -1878.71817630     A.U. after    9 cycles
 SCF Done:  E(RM062X) =  -1878.71818907     A.U. after    9 cycles
 Optimization completed.
    -- Stationary point found.
 Normal termination of Gaussian 09 at Thu Mar 13 14:57:19 2025.

 ---------------------------------------------------------------------
 #N Geom=AllCheck Guess=TCheck SCRF=Check GenChk RM062X/6-31+G(d) Freq
 ---------------------------------------------------------------------

 Structure from the checkpoint file:  "/srv/scratch/z5358697/gauss/Gau-1666057.chk"
 --------------------
 carbon tetrachloride
 --------------------
 Charge =  0 Multiplicity = 1

                         Standard orientation:
 ---------------------------------------------------------------------
 Center     Atomic      Atomic             Coordinates (Angstroms)
 Number     Number       Type             X           Y           Z
 ---------------------------------------------------------------------
      1          6           0        0.000249    0.000167    0.000479
      2         17           0        0.524027   -1.365386   -1.005889
      3         17           0        1.395151    0.654825    0.881004
      4         17           0       -1.225367   -0.554945    1.158076
      5         17           0       -0.693898    1.265447   -1.033360
 ---------------------------------------------------------------------

 SCF Done:  E(RM062X) =  -1878.71818907     A.U. after    1 cycles

 The electronic state is 1-A.
 Alpha  occ. eigenvalues -- -102.70987-102.70976-102.70975-102.70972 -10.80072
 Alpha  occ. eigenvalues --   -9.85733  -9.85725  -9.85721  -9.85719  -7.58194
 Alpha  occ. eigenvalues --   -7.58186  -7.58182  -7.58180  -7.57394  -7.57393
 Alpha  occ. eigenvalues --   -7.57386  -7.57385  -7.57382  -7.57382  -7.57381
 Alpha  occ. eigenvalues --   -7.57380  -1.09693  -0.96086  -0.96072  -0.96068
 Alpha  occ. eigenvalues --   -0.71874  -0.57817  -0.57808  -0.57805  -0.45091
 Alpha  occ. eigenvalues --   -0.45082  -0.42105  -0.42092  -0.42089  -0.38970
 Alpha  occ. eigenvalues --   -0.38963  -0.38962
 Alpha virt. eigenvalues --   -0.03249   0.01520   0.01522   0.01538   0.02815
 Alpha virt. eigenvalues --    0.05406   0.05406   0.05408   0.09738   0.09739
 Alpha virt. eigenvalues --    0.11009   0.11013   0.11016   0.12467   0.13523

 Mulliken charges:
               1
     1  C   -0.569288
     2  Cl   0.141519
     3  Cl   0.142367
     4  Cl   0.142370
     5  Cl   0.143032
 Sum of Mulliken charges =   0.00000

 Dipole moment (field-independent basis, Debye):
    X=             -0.0001    Y=              0.0027    Z=              0.0021  Tot=              0.0034
 Quadrupole moment (field-independent basis, Debye-Ang):
   XX=            -55.4767   YY=            -55.4861   ZZ=            -55.4860
   XY=              0.0037   XZ=              0.0010   YZ=              0.0017

  Exact polarizability:  59.205  -0.010  59.198  -0.020  -0.006  59.156
 Approx polarizability:  70.122  -0.006  70.110   0.002   0.005  70.064

                      1                      2                      3
                      A                      A                      A
 Frequencies --    218.0539               219.2168               318.3664
 Red. masses --     34.9667                34.9679                31.7000
 Frc consts  --      0.9796                 0.9901                 1.8931
 IR Inten    --      0.0014                 0.0003                 0.0195

                      4                      5                      6
                      A                      A                      A
 Frequencies --    319.8625               322.7245               475.3988
 Red. masses --     31.6449                31.8852                34.9623
 Frc consts  --      1.9076                 1.9566                 4.6555
 IR Inten    --      0.0291                 0.0007                 0.0158

                      7                      8                      9
                      A                      A                      A
 Frequencies --    794.9707               809.4407               818.2692
 Red. masses --     13.1483                13.1434                13.1302
 Frc consts  --      4.8958                 5.0737                 5.1798
 IR Inten    --    174.1575               170.9732               170.6369

 - Thermochemistry -
 -------------------
 Temperature   298.150 Kelvin.  Pressure   1.00000 Atm.
 Atom     1 has atomic number  6 and mass  12.00000

 Molecular mass:   151.87541 amu.
 Principal axes and moments of inertia in atomic units:
                           1         2         3
     Eigenvalues --  1048.877201049.086521049.76546
           X            1.00000   0.00000   0.00000
           Y            0.00000   1.00000   0.00000
           Z            0.00000   0.00000   1.00000
 This molecule is an asymmetric top.
 Rotational symmetry number  1.
 Warning -- assumption of classical behavior for rotation
           may cause significant error
 Rotational temperatures (Kelvin)      0.08258     0.08256     0.08251
 Rotational constants (GHZ):           1.72064     1.72030     1.71919
 Zero-point vibrational energy      25697.6 (Joules/Mol)
                                    6.14187 (Kcal/Mol)
 Warning -- explicit consideration of   6 degrees of freedom as
           vibrations may cause significant error
 Vibrational temperatures:    313.73   315.40   458.06   460.21   464.33
          (Kelvin)            683.99  1143.78  1164.60  1177.31

 Zero-point correction=                           0.009788 (Hartree/Particle)
 Thermal correction to Energy=                    0.015342
 Thermal correction to Enthalpy=                  0.016287
 Thermal correction to Gibbs Free Energy=        -0.021103
 Sum of electronic and zero-point Energies=          -1878.708401
 Sum of electronic and thermal Energies=             -1878.702847
 Sum of electronic and thermal Enthalpies=           -1878.701902
 Sum of electronic and thermal Free Energies=        -1878.739292

                     E (Thermal)             CV                S
                      KCal/Mol        Cal/Mol-Kelvin    Cal/Mol-Kelvin
 Total                    9.627             17.711             78.694
 Electronic               0.000              0.000              0.000
 Translational            0.889              2.981             40.964
 Rotational               0.889              2.981             28.537
 Vibrational              7.850             11.749              9.193
 Vibration     1          0.646              1.814              1.975
 Vibration     2          0.647              1.812              1.966
 Vibration     3          0.705              1.638              1.318
 Vibration     4          0.706              1.636              1.311
 Vibration     5          0.708              1.630              1.296
 Vibration     6          0.832              1.305              0.723

 Normal termination of Gaussian 09 at Thu Mar 13 14:57:55 2025.
