 Gaussian 09, Revision D.01,
 Gaussian 09:  ES64L-G09RevD.01 24-Apr-2013

 ---------------------------------
 #m062X/6-31+G(d) OPT Freq=noraman
 ---------------------------------

 -----------
 methanamine
 -----------
 Symbolic Z-matrix:
 Charge =  0 Multiplicity = 1

 SCF Done:  E(RM062X) =  -95.7938439008     A.U. after   11 cycles
 SCF Done:  E(RM062X) =  -95.7965045927     A.U. after   10 cycles
 SCF Done:  E(RM062X) =  -95.7995317321     A.U. after   11 cycles
 SCF Done:  E(RM062X) =  -95.8009904246     A.U. after   10 cycles
 SCF Done:  E(RM062X) =  -95.8016594021     A.U. after   10 cycles
 SCF Done:  E(RM062X) =  -95.8015777880     A.U. after   10 cycles
 SCF Done:  E(RM062X) =  -95.8017500789     A.U. after    8 cycles
 SCF Done:  E(RM062X) =  -95.8017627595     A.U. after    9 cycles
 Optimization completed.
    -- Stationary point found.

 1\1\GINC-KATANA1\FOpt\RM062X\6-31+G(d)\C1H5N1\Z5358697\20-Mar-2025\0\\
 #m062X/6-31+G(d) OPT Freq=noraman\\methanamine\\0,1\C,-0.6372163218,-0
 .7336560054,0.4896092489\N,-1.8824443271,-0.7280589852,-0.2749075449\H
 ,-0.3328390668,-1.7169407215,0.8787246774\H,-0.7368127494,-0.048662722
 ,1.3361795344\H,0.1697996772,-0.3532674545,-0.14272465\H,-2.6549542827
 ,-1.0638067417,0.2933805638\H,-1.8140329294,-1.3463073697,-1.078361829
 6\\Version=ES64L-G09RevD.01\State=1-A\HF=-95.8017628\RMSD=2.173e-09\RM
 SF=8.631e-05\Dipole=0.0928445,-0.5693155,0.1741617\Quadrupole=0.414002

 Normal termination of Gaussian 09 at Thu Mar 20 14:21:52 2025.

 ---------------------------------------------------------------------
 #N Geom=AllCheck Guess=TCheck SCRF=Check GenChk RM062X/6-31+G(d) Freq
 ---------------------------------------------------------------------

 Structure from the checkpoint file:  "/srv/scratch/z5358697/gauss/Gau-3858138.chk"
 -----------
 methanamine
 -----------
 Charge =  0 Multiplicity = 1

                         Standard orientation:
 ---------------------------------------------------------------------
 Center     Atomic      Atomic             Coordinates (Angstroms)
 Number     Number       Type             X           Y           Z
 ---------------------------------------------------------------------
      1          6           0       -0.706622    0.000000    0.018026
      2          7           0        0.747992    0.000000   -0.120574
      3          1           0       -1.076738   -0.000019    1.054326
      4          1           0       -1.111888   -0.880598   -0.488060
      5          1           0       -1.111883    0.880620   -0.488026
      6          1           0        1.152148   -0.816798    0.328813
      7          1           0        1.152148    0.816797    0.328813
 ---------------------------------------------------------------------

 SCF Done:  E(RM062X) =  -95.8017627595     A.U. after    1 cycles

 The electronic state is 1-A.
 Alpha  occ. eigenvalues --  -14.74354 -10.56207  -0.98157  -0.75006  -0.56524
 Alpha  occ. eigenvalues --   -0.50955  -0.46980  -0.43243  -0.30296
 Alpha virt. eigenvalues --    0.02082   0.04822   0.06027   0.06840   0.12250
 Alpha virt. eigenvalues --    0.14547   0.16761   0.22529   0.23409   0.24691
 Alpha virt. eigenvalues --    0.26742   0.28392   0.31942   0.35945   0.69384

 Mulliken charges:
               1
     1  C   -0.481983
     2  N   -0.838082
     3  H    0.175793
     4  H    0.200491
     5  H    0.200490
     6  H    0.371646
     7  H    0.371646
 Sum of Mulliken charges =   0.00000

 Dipole moment (field-independent basis, Debye):
    X=             -0.2971    Y=              0.0000    Z=              1.5025  Tot=              1.5315
 Quadrupole moment (field-independent basis, Debye-Ang):
   XX=            -14.0708   YY=            -12.6342   ZZ=            -15.8886
   XY=              0.0000   XZ=              2.3140   YZ=              0.0000

  Exact polarizability:  23.275   0.000  20.620  -0.573   0.000  20.963
 Approx polarizability:  22.223   0.000  22.156  -0.233   0.000  21.548

                      1                      2                      3
                      A                      A                      A
 Frequencies --    308.7636               867.6989               973.1896
 Red. masses --      1.0299                 1.1860                 1.0492
 Frc consts  --      0.0578                 0.5261                 0.5855
 IR Inten    --     45.3054               191.1809                 0.0510

                      4                      5                      6
                      A                      A                      A
 Frequencies --   1097.2562              1182.6254              1355.6254
 Red. masses --      3.6797                 1.4013                 1.3498
 Frc consts  --      2.6102                 1.1547                 1.4615
 IR Inten    --     15.2351                10.1876                 0.0050

                      7                      8                      9
                      A                      A                      A
 Frequencies --   1474.3841              1524.0479              1541.2946
 Red. masses --      1.1737                 1.0509                 1.0345
 Frc consts  --      1.5032                 1.4381                 1.4479
 IR Inten    --      2.8500                 8.2173                 4.3767

                     10                     11                     12
                      A                      A                      A
 Frequencies --   1705.7733              3031.1655              3114.7132
 Red. masses --      1.0877                 1.0515                 1.0835
 Frc consts  --      1.8648                 5.6920                 6.1929
 IR Inten    --     40.8852                86.0137                32.2041

                     13                     14                     15
                      A                      A                      A
 Frequencies --   3155.6909              3528.8002              3616.5370
 Red. masses --      1.1038                 1.0501                 1.0940
 Frc consts  --      6.4762                 7.7040                 8.4302
 IR Inten    --     26.3605                 0.0052                 3.4823

 - Thermochemistry -
 -------------------
 Temperature   298.150 Kelvin.  Pressure   1.00000 Atm.
 Atom     1 has atomic number  6 and mass  12.00000

 Molecular mass:    31.04220 amu.
 Principal axes and moments of inertia in atomic units:
                           1         2         3
     Eigenvalues --    17.46622  79.06124  82.36318
           X            0.99930   0.00000   0.03740
           Y            0.00000   1.00000   0.00000
           Z           -0.03740   0.00000   0.99930
 This molecule is an asymmetric top.
 Rotational symmetry number  1.
 Rotational temperatures (Kelvin)      4.95893     1.09553     1.05161
 Rotational constants (GHZ):         103.32754    22.82713    21.91199
 Zero-point vibrational energy     170333.7 (Joules/Mol)
                                   40.71072 (Kcal/Mol)
 Warning -- explicit consideration of   1 degrees of freedom as
           vibrations may cause significant error
 Vibrational temperatures:    444.24  1248.42  1400.20  1578.71  1701.53
          (Kelvin)           1950.44  2121.31  2192.76  2217.58  2454.22
                             4361.17  4481.37  4540.33  5077.15  5203.38

 Zero-point correction=                           0.064877 (Hartree/Particle)
 Thermal correction to Energy=                    0.068289
 Thermal correction to Enthalpy=                  0.069233
 Thermal correction to Gibbs Free Energy=         0.041960
 Sum of electronic and zero-point Energies=            -95.736886
 Sum of electronic and thermal Energies=               -95.733474
 Sum of electronic and thermal Enthalpies=             -95.732530
 Sum of electronic and thermal Free Energies=          -95.759803

                     E (Thermal)             CV                S
                      KCal/Mol        Cal/Mol-Kelvin    Cal/Mol-Kelvin
 Total                   42.852              9.445             57.401
 Electronic               0.000              0.000              0.000
 Translational            0.889              2.981             36.231
 Rotational               0.889              2.981             19.370
 Vibrational             41.074              3.484              1.800
 Vibration     1          0.698              1.657              1.369

 Optimization completed.
    -- Stationary point found.

 1\1\GINC-KATANA1\Freq\RM062X\6-31+G(d)\C1H5N1\Z5358697\20-Mar-2025\0\\
 #N Geom=AllCheck Guess=TCheck SCRF=Check GenChk RM062X/6-31+G(d) Freq\
 \methanamine\\0,1\C,-0.6372163218,-0.7336560054,0.4896092489\N,-1.8824
 443271,-0.7280589852,-0.2749075449\H,-0.3328390668,-1.7169407215,0.878
 7246774\H,-0.7368127494,-0.048662722,1.3361795344\H,0.1697996772,-0.35
 32674545,-0.14272465\H,-2.6549542827,-1.0638067417,0.2933805638\H,-1.8
 140329294,-1.3463073697,-1.0783618296\\Version=ES64L-G09RevD.01\State=
 1-A\HF=-95.8017628\RMSD=5.724e-10\RMSF=8.631e-05\ZeroPoint=0.0648767\T

 Normal termination of Gaussian 09 at Thu Mar 20 14:22:07 2025.
