 Gaussian 09, Revision D.01,
 Gaussian 09:  ES64L-G09RevD.01 24-Apr-2013

 ---------------------------------
 #m062X/6-31+G(d) OPT Freq=noraman
 ---------------------------------

 -------------------------
 2-chloro-2-methyl-propane
 -------------------------
 Symbolic Z-matrix:
 Charge =  0 Multiplicity = 1

 SCF Done:  E(RM062X) =  -617.940132826     A.U. after   12 cycles
 SCF Done:  E(RM062X) =  -617.940985260     A.U. after   10 cycles
 SCF Done:  E(RM062X) =  -617.941107635     A.U. after    9 cycles
 SCF Done:  E(RM062X) =  -617.941115982     A.U. after    8 cycles
 SCF Done:  E(RM062X) =  -617.941121790     A.U. after    8 cycles
 SCF Done:  E(RM062X) =  -617.941124624     A.U. after    7 cycles
 Optimization completed.
    -- Stationary point found.
 Normal termination of Gaussian 09 at Mon Mar 17 18:32:12 2025.

 ---------------------------------------------------------------------
 #N Geom=AllCheck Guess=TCheck SCRF=Check GenChk RM062X/6-31+G(d) Freq
 ---------------------------------------------------------------------

 Structure from the checkpoint file:  "/srv/scratch/z5358697/gauss/Gau-4051474.chk"
 -------------------------
 2-chloro-2-methyl-propane
 -------------------------
 Charge =  0 Multiplicity = 1

                         Standard orientation:
 ---------------------------------------------------------------------
 Center     Atomic      Atomic             Coordinates (Angstroms)
 Number     Number       Type             X           Y           Z
 ---------------------------------------------------------------------
      1          6           0        0.808821   -1.352741    0.533200
      2          6           0        0.354281   -0.000194    0.000189
      3          6           0        0.810890    0.214114   -1.437263
      4          6           0        0.810727    1.137476    0.904547
      5         17           0       -1.476425    0.000674   -0.000310
      6          1           0        0.442785   -1.514319    1.551108
      7          1           0        0.444145   -2.164791   -0.102208
      8          1           0        1.904776   -1.386077    0.547306
      9          1           0        0.447364    1.170377   -1.824009
     10          1           0        1.906903    0.217966   -1.471213
     11          1           0        0.445470   -0.586236   -2.086918
     12          1           0        0.442829    2.099864    0.537638
     13          1           0        1.906717    1.166750    0.922596
     14          1           0        0.449922    0.993067    1.926923
 ---------------------------------------------------------------------

 SCF Done:  E(RM062X) =  -617.941124624     A.U. after    1 cycles

 The electronic state is 1-A.
 Alpha  occ. eigenvalues -- -102.64525 -10.62350 -10.55135 -10.55134 -10.55133
 Alpha  occ. eigenvalues --   -9.79231  -7.51598  -7.50978  -7.50978  -0.97431
 Alpha  occ. eigenvalues --   -0.86087  -0.79714  -0.79709  -0.63379  -0.54337
 Alpha  occ. eigenvalues --   -0.52772  -0.52769  -0.47404  -0.47398  -0.44325
 Alpha  occ. eigenvalues --   -0.41835  -0.41831  -0.40976  -0.35314  -0.35313
 Alpha virt. eigenvalues --    0.02100   0.03927   0.03928   0.04230   0.05411
 Alpha virt. eigenvalues --    0.06736   0.06738   0.06989   0.08834   0.08839
 Alpha virt. eigenvalues --    0.11726   0.12291   0.12709   0.12714   0.13679

 Mulliken charges:
               1
     1  C   -0.437425
     2  C   -0.863455
     3  C   -0.437161
     4  C   -0.437307
     5  Cl   0.076352
     6  H    0.238079
     7  H    0.238033
     8  H    0.223545
     9  H    0.238118
    10  H    0.223494
    11  H    0.238054
    12  H    0.238231
    13  H    0.223519
    14  H    0.237923
 Sum of Mulliken charges =   0.00000

 Dipole moment (field-independent basis, Debye):
    X=              2.4050    Y=             -0.0007    Z=              0.0009  Tot=              2.4050
 Quadrupole moment (field-independent basis, Debye-Ang):
   XX=            -42.0391   YY=            -39.7060   ZZ=            -39.7046
   XY=              0.0012   XZ=             -0.0004   YZ=              0.0005

  Exact polarizability:  67.408  -0.117  56.635   0.030  -0.051  56.581
 Approx polarizability:  78.542  -0.008  62.454   0.004   0.004  62.457

                      1                      2                      3
                      A                      A                      A
 Frequencies --    232.2961               293.5368               297.6418
 Red. masses --      1.0128                 1.1920                 1.2129
 Frc consts  --      0.0322                 0.0605                 0.0633
 IR Inten    --      0.0007                 0.0631                 0.0859

                      4                      5                      6
                      A                      A                      A
 Frequencies --    305.0802               306.3497               378.7882
 Red. masses --      2.2059                 1.9242                 3.1565
 Frc consts  --      0.1210                 0.1064                 0.2668
 IR Inten    --      0.7278                 0.6549                 3.5397

                      7                      8                      9
                      A                      A                      A
 Frequencies --    409.4859               411.5275               586.9212
 Red. masses --      2.4336                 2.4267                 3.6456
 Frc consts  --      0.2404                 0.2421                 0.7399
 IR Inten    --      0.7124                 0.7169                35.3912

                     10                     11                     12
                      A                      A                      A
 Frequencies --    843.9019               952.0130               953.3185
 Red. masses --      2.9072                 1.5344                 1.5430
 Frc consts  --      1.2199                 0.8194                 0.8262
 IR Inten    --     12.7262                 0.1683                 0.2153

                     13                     14                     15
                      A                      A                      A
 Frequencies --    980.6046              1062.0504              1063.3631
 Red. masses --      1.2024                 1.4160                 1.4081
 Frc consts  --      0.6812                 0.9410                 0.9381
 IR Inten    --      0.0065                 0.0239                 0.0208

                     16                     17                     18
                      A                      A                      A
 Frequencies --   1196.4878              1283.1994              1283.5469
 Red. masses --      1.9342                 2.6956                 2.6779
 Frc consts  --      1.6314                 2.6152                 2.5994
 IR Inten    --     64.8599                 4.5590                 4.4583

                     19                     20                     21
                      A                      A                      A
 Frequencies --   1423.6010              1426.1656              1451.8149
 Red. masses --      1.3069                 1.3027                 1.2341
 Frc consts  --      1.5606                 1.5611                 1.5326
 IR Inten    --     16.6939                17.1367                 3.8066

                     22                     23                     24
                      A                      A                      A
 Frequencies --   1491.7863              1506.4951              1507.8574
 Red. masses --      1.0452                 1.0451                 1.0448
 Frc consts  --      1.3704                 1.3974                 1.3996
 IR Inten    --      0.0329                 0.1160                 0.5895

                     25                     26                     27
                      A                      A                      A
 Frequencies --   1519.9825              1520.3644              1539.5606
 Red. masses --      1.0586                 1.0594                 1.0504
 Frc consts  --      1.4410                 1.4428                 1.4669
 IR Inten    --      8.2931                 8.3298                10.4372

                     28                     29                     30
                      A                      A                      A
 Frequencies --   3068.9766              3071.2416              3076.8853
 Red. masses --      1.0373                 1.0379                 1.0382
 Frc consts  --      5.7561                 5.7679                 5.7911
 IR Inten    --     14.2822                14.8865                24.4239

                     31                     32                     33
                      A                      A                      A
 Frequencies --   3145.1312              3147.6785              3151.9744
 Red. masses --      1.0997                 1.0994                 1.0994
 Frc consts  --      6.4093                 6.4178                 6.4352
 IR Inten    --      3.7445                 7.2660                32.2980

                     34                     35                     36
                      A                      A                      A
 Frequencies --   3167.5567              3172.4276              3174.5285
 Red. masses --      1.1041                 1.1036                 1.1029
 Frc consts  --      6.5266                 6.5438                 6.5483
 IR Inten    --     10.4631                 7.6887                24.7810

 - Thermochemistry -
 -------------------
 Temperature   298.150 Kelvin.  Pressure   1.00000 Atm.
 Atom     1 has atomic number  6 and mass  12.00000

 Molecular mass:    92.03928 amu.
 Principal axes and moments of inertia in atomic units:
                           1         2         3
     Eigenvalues --   396.96348 600.23356 600.30218
           X            1.00000   0.00014  -0.00005
           Y           -0.00014   0.99931   0.03717
           Z            0.00006  -0.03717   0.99931
 This molecule is an asymmetric top.
 Rotational symmetry number  1.
 Rotational temperatures (Kelvin)      0.21819     0.14430     0.14428
 Rotational constants (GHZ):           4.54637     3.00673     3.00639
 Zero-point vibrational energy     325409.0 (Joules/Mol)
                                   77.77462 (Kcal/Mol)
 Warning -- explicit consideration of   9 degrees of freedom as
           vibrations may cause significant error
 Vibrational temperatures:    334.22   422.33   428.24   438.94   440.77
          (Kelvin)            544.99   589.16   592.10   844.45  1214.19
                             1369.73  1371.61  1410.87  1528.05  1529.94
                             1721.48  1846.24  1846.74  2048.24  2051.93
                             2088.84  2146.35  2167.51  2169.47  2186.91
                             2187.46  2215.08  4415.57  4418.83  4426.95
                             4525.14  4528.80  4534.98  4557.40  4564.41
                             4567.43

 Zero-point correction=                           0.123942 (Hartree/Particle)
 Thermal correction to Energy=                    0.130401
 Thermal correction to Enthalpy=                  0.131345
 Thermal correction to Gibbs Free Energy=         0.094439
 Sum of electronic and zero-point Energies=           -617.817183
 Sum of electronic and thermal Energies=              -617.810724
 Sum of electronic and thermal Enthalpies=            -617.809780
 Sum of electronic and thermal Free Energies=         -617.846686

                     E (Thermal)             CV                S
                      KCal/Mol        Cal/Mol-Kelvin    Cal/Mol-Kelvin
 Total                   81.828             23.616             77.675
 Electronic               0.000              0.000              0.000
 Translational            0.889              2.981             39.471
 Rotational               0.889              2.981             26.461
 Vibrational             80.050             17.654             11.743
 Vibration     1          0.653              1.792              1.861
 Vibration     2          0.688              1.686              1.453
 Vibration     3          0.691              1.678              1.430
 Vibration     4          0.696              1.664              1.389
 Vibration     5          0.697              1.662              1.382
 Vibration     6          0.749              1.515              1.044
 Vibration     7          0.774              1.450              0.928
 Vibration     8          0.776              1.445              0.921
 Vibration     9          0.944              1.060              0.473

 Normal termination of Gaussian 09 at Mon Mar 17 18:34:47 2025.
