 Gaussian 09, Revision D.01,
 Gaussian 09:  ES64L-G09RevD.01 24-Apr-2013

 ---------------------------------
 #m062X/6-31+G(d) OPT Freq=noraman
 ---------------------------------

 --------------
 4-chlorophenol
 --------------
 Symbolic Z-matrix:
 Charge =  0 Multiplicity = 1

 SCF Done:  E(RM062X) =  -766.909715869     A.U. after   14 cycles
 SCF Done:  E(RM062X) =  -766.910669279     A.U. after   12 cycles
 SCF Done:  E(RM062X) =  -766.910750127     A.U. after   12 cycles
 SCF Done:  E(RM062X) =  -766.910757882     A.U. after   10 cycles
 Optimization completed.
    -- Stationary point found.
 Normal termination of Gaussian 09 at Fri Mar 21 01:10:22 2025.

 ---------------------------------------------------------------------
 #N Geom=AllCheck Guess=TCheck SCRF=Check GenChk RM062X/6-31+G(d) Freq
 ---------------------------------------------------------------------

 Structure from the checkpoint file:  "/srv/scratch/z5358697/gauss/Gau-3837853.chk"
 --------------
 4-chlorophenol
 --------------
 Charge =  0 Multiplicity = 1

                         Standard orientation:
 ---------------------------------------------------------------------
 Center     Atomic      Atomic             Coordinates (Angstroms)
 Number     Number       Type             X           Y           Z
 ---------------------------------------------------------------------
      1          6           0        1.113350    1.219248   -0.000007
      2          6           0       -0.276192    1.211626   -0.000010
      3          6           0       -0.959619   -0.001800   -0.000014
      4          6           0       -0.266683   -1.206178   -0.000010
      5          6           0        1.126299   -1.197291   -0.000004
      6          6           0        1.816685    0.014226   -0.000003
      7          8           0        3.177267    0.089499    0.000020
      8         17           0       -2.705955   -0.009921    0.000010
      9          1           0        1.668652    2.151493   -0.000003
     10          1           0       -0.831211    2.144192   -0.000011
     11          1           0       -0.810654   -2.145165   -0.000012
     12          1           0        1.672057   -2.138218    0.000000
     13          1           0        3.561215   -0.798626   -0.000021
 ---------------------------------------------------------------------

 SCF Done:  E(RM062X) =  -766.910757882     A.U. after    1 cycles

 The electronic state is 1-A.
 Alpha  occ. eigenvalues -- -102.67065 -19.69008 -10.63155 -10.61679 -10.57746
 Alpha  occ. eigenvalues --  -10.57541 -10.57370 -10.56717  -9.81729  -7.54137
 Alpha  occ. eigenvalues --   -7.53465  -7.53461  -1.20114  -1.00072  -0.93972
 Alpha  occ. eigenvalues --   -0.86777  -0.82946  -0.73018  -0.69662  -0.64144
 Alpha  occ. eigenvalues --   -0.58099  -0.55780  -0.52652  -0.51100  -0.50769
 Alpha  occ. eigenvalues --   -0.48403  -0.45513  -0.44869  -0.42418  -0.38482
 Alpha  occ. eigenvalues --   -0.37832  -0.32709  -0.28310
 Alpha virt. eigenvalues --    0.00226   0.00540   0.01867   0.02255   0.03335
 Alpha virt. eigenvalues --    0.03503   0.05696   0.06458   0.07306   0.07376
 Alpha virt. eigenvalues --    0.08923   0.08976   0.09594   0.09606   0.12896

 Mulliken charges:
               1
     1  C    0.033243
     2  C   -0.576198
     3  C    0.187339
     4  C   -0.614920
     5  C    0.137782
     6  C   -0.016413
     7  O   -0.679509
     8  Cl   0.151668
     9  H    0.228676
    10  H    0.231749
    11  H    0.230822
    12  H    0.199303
    13  H    0.486458
 Sum of Mulliken charges =   0.00000

 Dipole moment (field-independent basis, Debye):
    X=              1.8589    Y=             -1.4289    Z=             -0.0001  Tot=              2.3446
 Quadrupole moment (field-independent basis, Debye-Ang):
   XX=            -54.0892   YY=            -46.0474   ZZ=            -57.2312
   XY=             -6.0222   XZ=             -0.0003   YZ=              0.0000

  Exact polarizability: 114.394  -1.070  83.871   0.013   0.008  45.928
 Approx polarizability: 135.109  -0.578 110.985   0.000   0.000  57.645

                      1                      2                      3
                      A                      A                      A
 Frequencies --    127.5186               264.1937               330.9963
 Red. masses --      8.4878                 7.6813                 6.3264
 Frc consts  --      0.0813                 0.3159                 0.4084
 IR Inten    --      0.0122                 1.5770                 0.0804

                      4                      5                      6
                      A                      A                      A
 Frequencies --    382.6230               385.6795               426.1476
 Red. masses --      1.1177                14.2759                 2.9210
 Frc consts  --      0.0964                 1.2511                 0.3125
 IR Inten    --    123.0132                 0.7237                 3.1257

                      7                      8                      9
                      A                      A                      A
 Frequencies --    428.3129               513.8148               646.0280
 Red. masses --      3.8518                 2.4897                 7.0332
 Frc consts  --      0.4163                 0.3873                 1.7294
 IR Inten    --     10.3185                24.7821                 0.4005

                     10                     11                     12
                      A                      A                      A
 Frequencies --    659.1550               695.8170               824.3590
 Red. masses --      7.3359                 3.9205                 1.3275
 Frc consts  --      1.8779                 1.1184                 0.5315
 IR Inten    --     36.3881                 0.5178                18.9410

                     13                     14                     15
                      A                      A                      A
 Frequencies --    851.9205               854.2510               951.7469
 Red. masses --      1.5487                 6.1434                 1.3054
 Frc consts  --      0.6623                 2.6414                 0.6967
 IR Inten    --     50.2052                 0.6098                 0.0650

                     16                     17                     18
                      A                      A                      A
 Frequencies --    983.2564              1030.9725              1129.4926
 Red. masses --      1.3322                 3.2026                 1.4481
 Frc consts  --      0.7588                 2.0056                 1.0885
 IR Inten    --      0.0184                13.0628                 8.5634

                     19                     20                     21
                      A                      A                      A
 Frequencies --   1138.6816              1197.4028              1207.9484
 Red. masses --      2.1979                 1.1095                 1.3561
 Frc consts  --      1.6790                 0.9373                 1.1659
 IR Inten    --     43.3852                 5.3922               162.6352

                     22                     23                     24
                      A                      A                      A
 Frequencies --   1321.9916              1327.6434              1371.0737
 Red. masses --      3.2189                 1.7663                 2.9658
 Frc consts  --      3.3145                 1.8343                 3.2848
 IR Inten    --     94.9938                 3.4390                38.3678

                     25                     26                     27
                      A                      A                      A
 Frequencies --   1487.6226              1557.9995              1687.8933
 Red. masses --      3.0634                 2.8201                 6.9449
 Frc consts  --      3.9943                 4.0333                11.6575
 IR Inten    --     27.2464               182.7369                18.0936

                     28                     29                     30
                      A                      A                      A
 Frequencies --   1700.5609              3196.7368              3229.2910
 Red. masses --      6.5830                 1.0906                 1.0893
 Frc consts  --     11.2165                 6.5666                 6.6931
 IR Inten    --     18.9271                10.4181                 1.1498

                     31                     32                     33
                      A                      A                      A
 Frequencies --   3233.5906              3242.0621              3817.1885
 Red. masses --      1.0945                 1.0966                 1.0664
 Frc consts  --      6.7429                 6.7911                 9.1551
 IR Inten    --      0.6271                 0.6301                78.1542

 - Thermochemistry -
 -------------------
 Temperature   298.150 Kelvin.  Pressure   1.00000 Atm.
 Atom     1 has atomic number  6 and mass  12.00000

 Molecular mass:   128.00289 amu.
 Principal axes and moments of inertia in atomic units:
                           1         2         3
     Eigenvalues --   319.296671854.596362173.89303
           X            0.99998  -0.00680   0.00000
           Y            0.00680   0.99998   0.00000
           Z            0.00000   0.00000   1.00000
 This molecule is an asymmetric top.
 Rotational symmetry number  1.
 Rotational temperatures (Kelvin)      0.27126     0.04670     0.03984
 Rotational constants (GHZ):           5.65224     0.97312     0.83019
 Zero-point vibrational energy     252435.8 (Joules/Mol)
                                   60.33361 (Kcal/Mol)
 Warning -- explicit consideration of   8 degrees of freedom as
           vibrations may cause significant error
 Vibrational temperatures:    183.47   380.12   476.23   550.51   554.91
          (Kelvin)            613.13   616.25   739.26   929.49   948.38
                             1001.12  1186.07  1225.72  1229.08  1369.35
                             1414.68  1483.34  1625.09  1638.31  1722.79
                             1737.97  1902.05  1910.18  1972.67  2140.35
                             2241.61  2428.50  2446.72  4599.39  4646.22
                             4652.41  4664.60  5492.08

 Zero-point correction=                           0.096148 (Hartree/Particle)
 Thermal correction to Energy=                    0.102762
 Thermal correction to Enthalpy=                  0.103706
 Thermal correction to Gibbs Free Energy=         0.064966
 Sum of electronic and zero-point Energies=           -766.814610
 Sum of electronic and thermal Energies=              -766.807996
 Sum of electronic and thermal Enthalpies=            -766.807052
 Sum of electronic and thermal Free Energies=         -766.845792

                     E (Thermal)             CV                S
                      KCal/Mol        Cal/Mol-Kelvin    Cal/Mol-Kelvin
 Total                   64.484             25.405             81.535
 Electronic               0.000              0.000              0.000
 Translational            0.889              2.981             40.454
 Rotational               0.889              2.981             28.645
 Vibrational             62.706             19.444             12.437
 Vibration     1          0.611              1.926              2.983
 Vibration     2          0.671              1.739              1.634
 Vibration     3          0.713              1.614              1.255
 Vibration     4          0.752              1.507              1.029
 Vibration     5          0.754              1.501              1.017
 Vibration     6          0.788              1.413              0.871
 Vibration     7          0.790              1.409              0.864
 Vibration     8          0.869              1.219              0.624

 Optimization completed.
    -- Stationary point found.
 Normal termination of Gaussian 09 at Fri Mar 21 01:15:09 2025.
