 Gaussian 09, Revision D.01,
 Gaussian 09:  ES64L-G09RevD.01 24-Apr-2013

 ---------------------------------
 #m062X/6-31+G(d) OPT Freq=noraman
 ---------------------------------

 ------------------
 1,4-dibromobenzene
 ------------------
 Symbolic Z-matrix:
 Charge =  0 Multiplicity = 1

 SCF Done:  E(RM062X) =  -5374.55233770     A.U. after   12 cycles
 SCF Done:  E(RM062X) =  -5374.55272702     A.U. after   12 cycles
 SCF Done:  E(RM062X) =  -5374.55276649     A.U. after    9 cycles
 SCF Done:  E(RM062X) =  -5374.55276847     A.U. after    9 cycles
 SCF Done:  E(RM062X) =  -5374.55276862     A.U. after    8 cycles
 Optimization completed.
    -- Stationary point found.
 Normal termination of Gaussian 09 at Sun Mar 16 22:35:54 2025.

 ---------------------------------------------------------------------
 #N Geom=AllCheck Guess=TCheck SCRF=Check GenChk RM062X/6-31+G(d) Freq
 ---------------------------------------------------------------------

 Structure from the checkpoint file:  "/srv/scratch/z5358697/gauss/Gau-1931917.chk"
 ------------------
 1,4-dibromobenzene
 ------------------
 Charge =  0 Multiplicity = 1

                         Standard orientation:
 ---------------------------------------------------------------------
 Center     Atomic      Atomic             Coordinates (Angstroms)
 Number     Number       Type             X           Y           Z
 ---------------------------------------------------------------------
      1          6           0       -0.695814   -1.210770    0.000288
      2          6           0        0.695813   -1.210769    0.000041
      3          6           0        1.380212   -0.000001   -0.000196
      4          6           0        0.695814    1.210769    0.000043
      5          6           0       -0.695813    1.210768    0.000287
      6          6           0       -1.380212   -0.000001    0.000594
      7         35           0       -3.262184    0.000001   -0.000136
      8         35           0        3.262184    0.000000   -0.000055
      9          1           0       -1.243671   -2.147172    0.000211
     10          1           0        1.243667   -2.147173   -0.000044
     11          1           0        1.243672    2.147171   -0.000045
     12          1           0       -1.243670    2.147169    0.000213
 ---------------------------------------------------------------------

 SCF Done:  E(RM062X) =  -5374.55276862     A.U. after    2 cycles

 The electronic state is 1-A.
 Alpha  occ. eigenvalues -- -485.49331-485.49314 -62.77478 -62.77287 -57.30521
 Alpha  occ. eigenvalues --  -57.30499 -57.30251 -57.30232 -57.30207 -57.30202
 Alpha  occ. eigenvalues --  -10.62935 -10.62933 -10.58762 -10.58760 -10.58684
 Alpha  occ. eigenvalues --  -10.58683  -8.94490  -8.94439  -6.89867  -6.89867
 Alpha  occ. eigenvalues --   -6.88832  -6.88831  -6.88816  -6.88815  -2.92724
 Alpha  occ. eigenvalues --   -2.92724  -2.92354  -2.92354  -2.92343  -2.92343
 Alpha  occ. eigenvalues --   -2.91422  -2.91422  -2.91422  -2.91422  -1.00927
 Alpha  occ. eigenvalues --   -0.93877  -0.87919  -0.87854  -0.80343  -0.72873
 Alpha  occ. eigenvalues --   -0.68952  -0.59717  -0.56334  -0.55205  -0.52232
 Alpha  occ. eigenvalues --   -0.48764  -0.48601  -0.44521  -0.42703  -0.41621
 Alpha  occ. eigenvalues --   -0.36225  -0.36041  -0.35625  -0.33835  -0.29693
 Alpha virt. eigenvalues --   -0.01022  -0.00858  -0.00096   0.01380   0.01754
 Alpha virt. eigenvalues --    0.02575   0.03073   0.04380   0.05203   0.05234
 Alpha virt. eigenvalues --    0.05372   0.06443   0.06949   0.08192   0.08914

 Mulliken charges:
               1
     1  C   -0.261342
     2  C   -0.261343
     3  C    0.041237
     4  C   -0.261341
     5  C   -0.261344
     6  C    0.041241
     7  Br   0.006639
     8  Br   0.006640
     9  H    0.237403
    10  H    0.237403
    11  H    0.237403
    12  H    0.237403
 Sum of Mulliken charges =   0.00000

 Dipole moment (field-independent basis, Debye):
    X=              0.0000    Y=              0.0000    Z=             -0.0001  Tot=              0.0001
 Quadrupole moment (field-independent basis, Debye-Ang):
   XX=            -76.3850   YY=            -64.9025   ZZ=            -75.5039
   XY=              0.0000   XZ=              0.0016   YZ=              0.0000

  Exact polarizability: 160.396   0.022  94.519   0.034   0.000  60.299
 Approx polarizability: 181.831   0.000 133.691  -0.009   0.000  81.390

                      1                      2                      3
                      A                      A                      A
 Frequencies --    104.1419               176.0267               221.1208
 Red. masses --      9.6070                10.6055                61.4885
 Frc consts  --      0.0614                 0.1936                 1.7713
 IR Inten    --      0.3094                 0.2635                 0.0000

                      4                      5                      6
                      A                      A                      A
 Frequencies --    327.1911               376.1869               450.4639
 Red. masses --      4.5647                 5.5048                 8.8184
 Frc consts  --      0.2879                 0.4590                 1.0543
 IR Inten    --      0.0013                 0.0000                13.5150

                      7                      8                      9
                      A                      A                      A
 Frequencies --    454.0870               558.7806               632.4318
 Red. masses --      2.7314                 2.4909                 7.0882
 Frc consts  --      0.3318                 0.4582                 1.6704
 IR Inten    --      0.0021                27.4709                 0.0000

                     10                     11                     12
                      A                      A                      A
 Frequencies --    730.0265               862.5210               870.6175
 Red. masses --      7.2699                 1.2464                 1.6268
 Frc consts  --      2.2827                 0.5463                 0.7265
 IR Inten    --      0.0015                 0.0000                44.8924

                     13                     14                     15
                      A                      A                      A
 Frequencies --    873.3906              1005.1964              1025.2462
 Red. masses --      1.8807                 6.6254                 1.4096
 Frc consts  --      0.8452                 3.9443                 0.8729
 IR Inten    --      0.0001                92.5631                 0.0005

                     16                     17                     18
                      A                      A                      A
 Frequencies --   1062.9595              1122.2917              1123.9909
 Red. masses --      2.2765                 7.9335                 1.7286
 Frc consts  --      1.5155                 5.8875                 1.2867
 IR Inten    --      0.0006                 0.0004                50.9152

                     19                     20                     21
                      A                      A                      A
 Frequencies --   1143.0274              1217.9056              1333.7561
 Red. masses --      1.3032                 1.1154                 1.2319
 Frc consts  --      1.0032                 0.9747                 1.2912
 IR Inten    --      4.5401                 0.0001                 0.0004

                     22                     23                     24
                      A                      A                      A
 Frequencies --   1333.8649              1450.6611              1534.2046
 Red. masses --     11.6295                 2.9724                 2.3002
 Frc consts  --     12.1908                 3.6855                 3.1900
 IR Inten    --      0.4468                12.3092                93.6549

                     25                     26                     27
                      A                      A                      A
 Frequencies --   1667.3750              1670.3590              3230.0363
 Red. masses --      7.9268                 6.2794                 1.0890
 Frc consts  --     12.9842                10.3226                 6.6942
 IR Inten    --      0.0012                 0.0017                 0.1151

                     28                     29                     30
                      A                      A                      A
 Frequencies --   3231.4622              3242.4814              3244.0230
 Red. masses --      1.0897                 1.0965                 1.0971
 Frc consts  --      6.7040                 6.7925                 6.8027
 IR Inten    --      0.0001                 0.1206                 0.0002

 - Thermochemistry -
 -------------------
 Temperature   298.150 Kelvin.  Pressure   1.00000 Atm.
 Atom     1 has atomic number  6 and mass  12.00000

 Molecular mass:   233.86797 amu.
 Principal axes and moments of inertia in atomic units:
                           1         2         3
     Eigenvalues --   317.652806266.745136584.39786
           X            1.00000   0.00000   0.00000
           Y            0.00000   1.00000   0.00000
           Z            0.00000   0.00000   1.00000
 This molecule is an asymmetric top.
 Rotational symmetry number  1.
 Rotational temperatures (Kelvin)      0.27267     0.01382     0.01315
 Rotational constants (GHZ):           5.68149     0.28799     0.27409
 Zero-point vibrational energy     216977.6 (Joules/Mol)
                                   51.85890 (Kcal/Mol)
 Warning -- explicit consideration of   8 degrees of freedom as
           vibrations may cause significant error
 Vibrational temperatures:    149.84   253.26   318.14   470.75   541.25
          (Kelvin)            648.12   653.33   803.96   909.93  1050.34
                             1240.97  1252.62  1256.61  1446.25  1475.10
                             1529.36  1614.73  1617.17  1644.56  1752.29
                             1918.98  1919.13  2087.18  2207.38  2398.98
                             2403.27  4647.30  4649.35  4665.20  4667.42

 Zero-point correction=                           0.082642 (Hartree/Particle)
 Thermal correction to Energy=                    0.089399
 Thermal correction to Enthalpy=                  0.090343
 Thermal correction to Gibbs Free Energy=         0.049003
 Sum of electronic and zero-point Energies=          -5374.470126
 Sum of electronic and thermal Energies=             -5374.463369
 Sum of electronic and thermal Enthalpies=           -5374.462425
 Sum of electronic and thermal Free Energies=        -5374.503766

                     E (Thermal)             CV                S
                      KCal/Mol        Cal/Mol-Kelvin    Cal/Mol-Kelvin
 Total                   56.099             24.429             87.009
 Electronic               0.000              0.000              0.000
 Translational            0.889              2.981             42.251
 Rotational               0.889              2.981             30.950
 Vibrational             54.321             18.467             13.808
 Vibration     1          0.605              1.946              3.375
 Vibration     2          0.628              1.872              2.370
 Vibration     3          0.648              1.809              1.950
 Vibration     4          0.711              1.621              1.274
 Vibration     5          0.747              1.521              1.054
 Vibration     6          0.809              1.360              0.794
 Vibration     7          0.813              1.352              0.784
 Vibration     8          0.914              1.121              0.526

 Optimization completed.
    -- Stationary point found.
 Normal termination of Gaussian 09 at Sun Mar 16 22:41:39 2025.
