 Gaussian 09, Revision D.01,
 Gaussian 09:  ES64L-G09RevD.01 24-Apr-2013

 ---------------------------------
 #m062X/6-31+G(d) OPT Freq=noraman
 ---------------------------------

 ---------
 hydrazine
 ---------
 Symbolic Z-matrix:
 Charge =  0 Multiplicity = 1

 SCF Done:  E(RM062X) =  -111.803294575     A.U. after   13 cycles
 SCF Done:  E(RM062X) =  -111.806825159     A.U. after   13 cycles
 SCF Done:  E(RM062X) =  -111.808712725     A.U. after   13 cycles
 SCF Done:  E(RM062X) =  -111.808875825     A.U. after   12 cycles
 SCF Done:  E(RM062X) =  -111.808882072     A.U. after    9 cycles
 SCF Done:  E(RM062X) =  -111.808883564     A.U. after    8 cycles
 Optimization completed.
    -- Stationary point found.
 Normal termination of Gaussian 09 at Thu Mar 20 14:20:26 2025.

 ---------------------------------------------------------------------
 #N Geom=AllCheck Guess=TCheck SCRF=Check GenChk RM062X/6-31+G(d) Freq
 ---------------------------------------------------------------------

 Structure from the checkpoint file:  "/srv/scratch/z5358697/gauss/Gau-3734352.chk"
 ---------
 hydrazine
 ---------
 Charge =  0 Multiplicity = 1

                         Standard orientation:
 ---------------------------------------------------------------------
 Center     Atomic      Atomic             Coordinates (Angstroms)
 Number     Number       Type             X           Y           Z
 ---------------------------------------------------------------------
      1          7           0        0.705205    0.072606    0.099176
      2          7           0       -0.705205    0.072605   -0.099177
      3          1           0        1.059973   -0.840066    0.377199
      4          1           0        1.140519    0.331825   -0.779817
      5          1           0       -1.140522    0.331836    0.779811
      6          1           0       -1.059972   -0.840072   -0.377189
 ---------------------------------------------------------------------

 SCF Done:  E(RM062X) =  -111.808883564     A.U. after    1 cycles

 The electronic state is 1-A.
 Alpha  occ. eigenvalues --  -14.77274 -14.77247  -1.06284  -0.84828  -0.58176
 Alpha  occ. eigenvalues --   -0.56764  -0.52536  -0.32640  -0.31795
 Alpha virt. eigenvalues --    0.05185   0.06300   0.10294   0.11234   0.14513
 Alpha virt. eigenvalues --    0.15408   0.16128   0.23369   0.23528   0.28204
 Alpha virt. eigenvalues --    0.29151   0.31993   0.32140   0.87110   0.89438

 Mulliken charges:
               1
     1  N   -0.759191
     2  N   -0.759192
     3  H    0.365990
     4  H    0.393202
     5  H    0.393202
     6  H    0.365990
 Sum of Mulliken charges =   0.00000

 Dipole moment (field-independent basis, Debye):
    X=              0.0000    Y=             -2.1934    Z=              0.0000  Tot=              2.1934
 Quadrupole moment (field-independent basis, Debye-Ang):
   XX=            -12.4642   YY=            -13.3193   ZZ=            -13.5785
   XY=              0.0000   XZ=             -2.8873   YZ=              0.0000

  Exact polarizability:  20.785   0.000  17.638  -0.208   0.000  17.314
 Approx polarizability:  19.862   0.000  18.364  -0.598   0.000  17.923

                      1                      2                      3
                      A                      A                      A
 Frequencies --    476.5555               871.3537              1011.1205
 Red. masses --      1.0501                 1.6601                 1.1828
 Frc consts  --      0.1405                 0.7426                 0.7124
 IR Inten    --     41.3169               103.2418               175.6950

                      4                      5                      6
                      A                      A                      A
 Frequencies --   1161.6018              1329.3997              1358.7311
 Red. masses --      2.2469                 1.1793                 1.2401
 Frc consts  --      1.7863                 1.2279                 1.3489
 IR Inten    --     12.4296                 5.8759                 4.2095

                      7                      8                      9
                      A                      A                      A
 Frequencies --   1720.3781              1739.4132              3491.9121
 Red. masses --      1.0885                 1.0512                 1.0509
 Frc consts  --      1.8982                 1.8739                 7.5499
 IR Inten    --     27.5126                19.9141                 9.0022

                     10                     11                     12
                      A                      A                      A
 Frequencies --   3497.7562              3599.8088              3603.7669
 Red. masses --      1.0492                 1.0959                 1.0931
 Frc consts  --      7.5630                 8.3668                 8.3645
 IR Inten    --      0.8045                 3.4297                 8.3531

 - Thermochemistry -
 -------------------
 Temperature   298.150 Kelvin.  Pressure   1.00000 Atm.
 Atom     1 has atomic number  7 and mass  14.00307

 Molecular mass:    32.03745 amu.
 Principal axes and moments of inertia in atomic units:
                           1         2         3
     Eigenvalues --    12.47359  73.57258  73.67115
           X            0.99839   0.00000  -0.05681
           Y            0.00000   1.00000  -0.00001
           Z            0.05681   0.00001   0.99839
 This molecule is an asymmetric top.
 Rotational symmetry number  1.
 Rotational temperatures (Kelvin)      6.94377     1.17726     1.17568
 Rotational constants (GHZ):         144.68495    24.53008    24.49726
 Zero-point vibrational energy     142725.2 (Joules/Mol)
                                   34.11215 (Kcal/Mol)
 Warning -- explicit consideration of   1 degrees of freedom as
           vibrations may cause significant error
 Vibrational temperatures:    685.66  1253.68  1454.78  1671.28  1912.71
          (Kelvin)           1954.91  2475.24  2502.62  5024.08  5032.48
                             5179.32  5185.01

 Zero-point correction=                           0.054361 (Hartree/Particle)
 Thermal correction to Energy=                    0.057573
 Thermal correction to Enthalpy=                  0.058517
 Thermal correction to Gibbs Free Energy=         0.031793
 Sum of electronic and zero-point Energies=           -111.754522
 Sum of electronic and thermal Energies=              -111.751310
 Sum of electronic and thermal Enthalpies=            -111.750366
 Sum of electronic and thermal Free Energies=         -111.777091

                     E (Thermal)             CV                S
                      KCal/Mol        Cal/Mol-Kelvin    Cal/Mol-Kelvin
 Total                   36.128              8.722             56.246
 Electronic               0.000              0.000              0.000
 Translational            0.889              2.981             36.325
 Rotational               0.889              2.981             18.853
 Vibrational             34.350              2.761              1.068
 Vibration     1          0.833              1.302              0.719

 Optimization completed.
    -- Stationary point found.
 Normal termination of Gaussian 09 at Thu Mar 20 14:20:37 2025.
