 Gaussian 09, Revision D.01,
 Gaussian 09:  ES64L-G09RevD.01 24-Apr-2013

 ---------------------------------
 #m062X/6-31+G(d) OPT Freq=noraman
 ---------------------------------

 ------------
 acetonitrile
 ------------
 Symbolic Z-matrix:
 Charge =  0 Multiplicity = 1

 SCF Done:  E(RM062X) =  -132.697254858     A.U. after   10 cycles
 SCF Done:  E(RM062X) =  -132.697415068     A.U. after    9 cycles
 SCF Done:  E(RM062X) =  -132.697418392     A.U. after    8 cycles
 Optimization completed.
    -- Stationary point found.

 1\1\GINC-KATANA2\FOpt\RM062X\6-31+G(d)\C2H3N1\Z5358697\20-Mar-2025\0\\
 #m062X/6-31+G(d) OPT Freq=noraman\\acetonitrile\\0,1\C,0.4511296475,0.
 2774449777,0.9540978249\C,-0.2031993238,1.4659758654,1.5019369903\N,-0
 .719867601,2.4041717843,1.9347624852\H,-0.2903087823,-0.501874334,0.76
 50284439\H,1.1912932588,-0.0997988109,1.6630118942\H,0.9520528008,0.52
 72805174,0.0163623615\\Version=ES64L-G09RevD.01\State=1-A\HF=-132.6974
 184\RMSD=7.184e-09\RMSF=1.503e-04\Dipole=0.7033221,-1.2772186,-0.58894
 82\Quadrupole=0.3089788,-0.7553286,0.4463498,0.8407701,0.3875776,-0.70

 Normal termination of Gaussian 09 at Thu Mar 20 14:20:55 2025.

 ---------------------------------------------------------------------
 #N Geom=AllCheck Guess=TCheck SCRF=Check GenChk RM062X/6-31+G(d) Freq
 ---------------------------------------------------------------------

 Structure from the checkpoint file:  "/srv/scratch/z5358697/gauss/Gau-1579833.chk"
 ------------
 acetonitrile
 ------------
 Charge =  0 Multiplicity = 1

                         Standard orientation:
 ---------------------------------------------------------------------
 Center     Atomic      Atomic             Coordinates (Angstroms)
 Number     Number       Type             X           Y           Z
 ---------------------------------------------------------------------
      1          6           0        1.181421    0.000048   -0.000025
      2          6           0       -0.281754   -0.000033    0.000141
      3          7           0       -1.436958    0.000017   -0.000056
      4          1           0        1.553620    1.026599   -0.021902
      5          1           0        1.553354   -0.532287   -0.878091
      6          1           0        1.553727   -0.494518    0.899687
 ---------------------------------------------------------------------

 SCF Done:  E(RM062X) =  -132.697418392     A.U. after    1 cycles

 The electronic state is 1-A.
 Alpha  occ. eigenvalues --  -14.77117 -10.60233 -10.59811  -1.01900  -0.87461
 Alpha  occ. eigenvalues --   -0.59017  -0.53760  -0.53754  -0.44211  -0.39867
 Alpha  occ. eigenvalues --   -0.39866
 Alpha virt. eigenvalues --    0.00792   0.03999   0.05355   0.05357   0.07157
 Alpha virt. eigenvalues --    0.07157   0.09718   0.09981   0.09984   0.14995
 Alpha virt. eigenvalues --    0.21140   0.22340   0.22346   0.25362   0.25365

 Mulliken charges:
               1
     1  C   -0.793426
     2  C    0.474691
     3  N   -0.462066
     4  H    0.260261
     5  H    0.260271
     6  H    0.260268
 Sum of Mulliken charges =   0.00000

 Dipole moment (field-independent basis, Debye):
    X=              3.9969    Y=             -0.0001    Z=              0.0000  Tot=              3.9969
 Quadrupole moment (field-independent basis, Debye-Ang):
   XX=            -20.8767   YY=            -17.7634   ZZ=            -17.7647
   XY=             -0.0002   XZ=             -0.0001   YZ=              0.0000

  Exact polarizability:  37.255  -0.017  19.837   0.005  -0.002  19.869
 Approx polarizability:  45.776  -0.002  21.731   0.004   0.000  21.728

                      1                      2                      3
                      A                      A                      A
 Frequencies --    382.3214               383.6690               946.6166
 Red. masses --      3.7706                 3.7814                 4.4465
 Frc consts  --      0.3247                 0.3280                 2.3476
 IR Inten    --      0.1526                 0.1534                 2.6003

                      4                      5                      6
                      A                      A                      A
 Frequencies --   1069.2841              1071.0920              1428.5535
 Red. masses --      1.4471                 1.4447                 1.2425
 Frc consts  --      0.9749                 0.9765                 1.4939
 IR Inten    --      2.1672                 2.1245                 3.6296

                      7                      8                      9
                      A                      A                      A
 Frequencies --   1497.8071              1498.7622              2428.7229
 Red. masses --      1.0388                 1.0387                12.5828
 Frc consts  --      1.3730                 1.3747                43.7305
 IR Inten    --     12.2697                12.4182                11.4920

                     10                     11                     12
                      A                      A                      A
 Frequencies --   3099.3990              3182.7574              3185.0071
 Red. masses --      1.0340                 1.1034                 1.1035
 Frc consts  --      5.8521                 6.5857                 6.5957
 IR Inten    --      1.5684                 0.0870                 0.0727

 - Thermochemistry -
 -------------------
 Temperature   298.150 Kelvin.  Pressure   1.00000 Atm.
 Atom     1 has atomic number  6 and mass  12.00000

 Molecular mass:    41.02655 amu.
 Principal axes and moments of inertia in atomic units:
                           1         2         3
     Eigenvalues --    11.38274 196.35278 196.35575
           X            1.00000   0.00000   0.00000
           Y            0.00000   1.00000   0.00005
           Z            0.00000  -0.00005   1.00000
 This molecule is an asymmetric top.
 Rotational symmetry number  1.
 Rotational temperatures (Kelvin)      7.60923     0.44111     0.44111
 Rotational constants (GHZ):         158.55074     9.19132     9.19118
 Zero-point vibrational energy     120667.3 (Joules/Mol)
                                   28.84017 (Kcal/Mol)
 Warning -- explicit consideration of   2 degrees of freedom as
           vibrations may cause significant error
 Vibrational temperatures:    550.07   552.01  1361.97  1538.46  1541.06
          (Kelvin)           2055.37  2155.01  2156.38  3494.39  4459.34
                             4579.27  4582.51

 Zero-point correction=                           0.045960 (Hartree/Particle)
 Thermal correction to Energy=                    0.049563
 Thermal correction to Enthalpy=                  0.050507
 Thermal correction to Gibbs Free Energy=         0.021939
 Sum of electronic and zero-point Energies=           -132.651459
 Sum of electronic and thermal Energies=              -132.647856
 Sum of electronic and thermal Enthalpies=            -132.646911
 Sum of electronic and thermal Free Energies=         -132.675479

                     E (Thermal)             CV                S
                      KCal/Mol        Cal/Mol-Kelvin    Cal/Mol-Kelvin
 Total                   31.101             10.276             60.125
 Electronic               0.000              0.000              0.000
 Translational            0.889              2.981             37.062
 Rotational               0.889              2.981             20.712
 Vibrational             29.324              4.315              2.351
 Vibration     1          0.752              1.508              1.030
 Vibration     2          0.753              1.505              1.025

 Optimization completed.
    -- Stationary point found.

 1\1\GINC-KATANA2\Freq\RM062X\6-31+G(d)\C2H3N1\Z5358697\20-Mar-2025\0\\
 #N Geom=AllCheck Guess=TCheck SCRF=Check GenChk RM062X/6-31+G(d) Freq\
 \acetonitrile\\0,1\C,0.4511296475,0.2774449777,0.9540978249\C,-0.20319
 93238,1.4659758654,1.5019369903\N,-0.719867601,2.4041717843,1.93476248
 52\H,-0.2903087823,-0.501874334,0.7650284439\H,1.1912932588,-0.0997988
 109,1.6630118942\H,0.9520528008,0.5272805174,0.0163623615\\Version=ES6
 4L-G09RevD.01\State=1-A\HF=-132.6974184\RMSD=1.587e-09\RMSF=1.503e-04\
 ZeroPoint=0.0459597\Thermal=0.0495627\Dipole=0.7033221,-1.2772185,-0.5

 Normal termination of Gaussian 09 at Thu Mar 20 14:21:12 2025.
