 Gaussian 09, Revision D.01,
 Gaussian 09:  ES64L-G09RevD.01 24-Apr-2013

 ---------------------------------
 #m062X/6-31+G(d) OPT Freq=noraman
 ---------------------------------

 -----------------------
 1,1,2-trichloroethylene
 -----------------------
 Symbolic Z-matrix:
 Charge =  0 Multiplicity = 1

 SCF Done:  E(RM062X) =  -1457.23951909     A.U. after   12 cycles
 SCF Done:  E(RM062X) =  -1457.24096525     A.U. after   11 cycles
 SCF Done:  E(RM062X) =  -1457.24108695     A.U. after   10 cycles
 SCF Done:  E(RM062X) =  -1457.24109925     A.U. after   10 cycles
 SCF Done:  E(RM062X) =  -1457.24110064     A.U. after    9 cycles
 Optimization completed.
    -- Stationary point found.
 Normal termination of Gaussian 09 at Fri Mar 14 14:08:00 2025.

 ---------------------------------------------------------------------
 #N Geom=AllCheck Guess=TCheck SCRF=Check GenChk RM062X/6-31+G(d) Freq
 ---------------------------------------------------------------------

 Structure from the checkpoint file:  "/srv/scratch/z5358697/gauss/Gau-749796.chk"
 -----------------------
 1,1,2-trichloroethylene
 -----------------------
 Charge =  0 Multiplicity = 1

                         Standard orientation:
 ---------------------------------------------------------------------
 Center     Atomic      Atomic             Coordinates (Angstroms)
 Number     Number       Type             X           Y           Z
 ---------------------------------------------------------------------
      1          6           0       -0.635708   -0.912240   -0.000278
      2          6           0        0.427511   -0.110087   -0.000483
      3         17           0        2.021478   -0.779878    0.000131
      4         17           0        0.339959    1.604207    0.000021
      5         17           0       -2.257351   -0.346516    0.000116
      6          1           0       -0.520281   -1.988859   -0.000004
 ---------------------------------------------------------------------

 SCF Done:  E(RM062X) =  -1457.24110064     A.U. after    1 cycles

 The electronic state is 1-A.
 Alpha  occ. eigenvalues -- -102.70366-102.70352-102.69701 -10.69114 -10.64252
 Alpha  occ. eigenvalues --   -9.85041  -9.85036  -9.84369  -7.57478  -7.57475
 Alpha  occ. eigenvalues --   -7.56796  -7.56755  -7.56737  -7.56735  -7.56729
 Alpha  occ. eigenvalues --   -7.56102  -7.56066  -1.05300  -0.98736  -0.95420
 Alpha  occ. eigenvalues --   -0.83645  -0.66297  -0.58878  -0.56392  -0.50937
 Alpha  occ. eigenvalues --   -0.49290  -0.43518  -0.42489  -0.41143  -0.40574
 Alpha  occ. eigenvalues --   -0.38912  -0.31795
 Alpha virt. eigenvalues --   -0.00225   0.00962   0.01430   0.03201   0.04593
 Alpha virt. eigenvalues --    0.04824   0.06244   0.06801   0.08575   0.09598
 Alpha virt. eigenvalues --    0.09838   0.09985   0.11871   0.13009   0.13446

 Mulliken charges:
               1
     1  C   -0.561103
     2  C   -0.004540
     3  Cl   0.091516
     4  Cl   0.145406
     5  Cl   0.053648
     6  H    0.275074
 Sum of Mulliken charges =   0.00000

 Dipole moment (field-independent basis, Debye):
    X=              0.0265    Y=             -0.9891    Z=              0.0003  Tot=              0.9894
 Quadrupole moment (field-independent basis, Debye-Ang):
   XX=            -50.3581   YY=            -46.2832   ZZ=            -50.4716
   XY=             -0.0344   XZ=              0.0001   YZ=             -0.0001

  Exact polarizability:  80.215   1.061  59.913  -0.001   0.001  34.102
 Approx polarizability:  91.025   1.251  72.265  -0.003   0.002  40.518

                      1                      2                      3
                      A                      A                      A
 Frequencies --    177.0510               188.1725               279.8647
 Red. masses --     25.9668                 6.7512                22.4569
 Frc consts  --      0.4796                 0.1408                 1.0363
 IR Inten    --      0.8919                 0.4911                 0.3416

                      4                      5                      6
                      A                      A                      A
 Frequencies --    391.4991               469.2772               642.9133
 Red. masses --     25.3639                 5.0375                 9.9324
 Frc consts  --      2.2905                 0.6536                 2.4188
 IR Inten    --      0.0825                 4.6285                12.7740

                      7                      8                      9
                      A                      A                      A
 Frequencies --    831.8654               857.1815               951.1340
 Red. masses --      1.3194                 9.4401                 6.3607
 Frc consts  --      0.5379                 4.0867                 3.3903
 IR Inten    --     28.4901               115.6364               107.7115

                     10                     11                     12
                      A                      A                      A
 Frequencies --   1292.4586              1701.4965              3268.3079
 Red. masses --      1.1771                 9.3819                 1.0931
 Frc consts  --      1.1585                16.0031                 6.8792
 IR Inten    --     10.3237                11.0309                17.2036

 - Thermochemistry -
 -------------------
 Temperature   298.150 Kelvin.  Pressure   1.00000 Atm.
 Atom     1 has atomic number  6 and mass  12.00000

 Molecular mass:   129.91438 amu.
 Principal axes and moments of inertia in atomic units:
                           1         2         3
     Eigenvalues --   462.535821187.187281649.72307
           X            0.99998   0.00631   0.00000
           Y           -0.00631   0.99998   0.00000
           Z            0.00000   0.00000   1.00000
 This molecule is an asymmetric top.
 Rotational symmetry number  1.
 Warning -- assumption of classical behavior for rotation
           may cause significant error
 Rotational temperatures (Kelvin)      0.18726     0.07296     0.05250
 Rotational constants (GHZ):           3.90184     1.52018     1.09397
 Zero-point vibrational energy      66101.0 (Joules/Mol)
                                   15.79851 (Kcal/Mol)
 Warning -- explicit consideration of   5 degrees of freedom as
           vibrations may cause significant error
 Vibrational temperatures:    254.74   270.74   402.66   563.28   675.18
          (Kelvin)            925.01  1196.87  1233.29  1368.47  1859.56
                             2448.07  4702.36

 Zero-point correction=                           0.025177 (Hartree/Particle)
 Thermal correction to Energy=                    0.030527
 Thermal correction to Enthalpy=                  0.031471
 Thermal correction to Gibbs Free Energy=        -0.005373
 Sum of electronic and zero-point Energies=          -1457.215924
 Sum of electronic and thermal Energies=             -1457.210574
 Sum of electronic and thermal Enthalpies=           -1457.209630
 Sum of electronic and thermal Free Energies=        -1457.246473

                     E (Thermal)             CV                S
                      KCal/Mol        Cal/Mol-Kelvin    Cal/Mol-Kelvin
 Total                   19.156             16.931             77.544
 Electronic               0.000              0.000              0.000
 Translational            0.889              2.981             40.498
 Rotational               0.889              2.981             28.295
 Vibrational             17.378             10.969              8.750
 Vibration     1          0.628              1.871              2.359
 Vibration     2          0.633              1.856              2.246
 Vibration     3          0.680              1.711              1.535
 Vibration     4          0.759              1.488              0.994
 Vibration     5          0.826              1.318              0.740

 Optimization completed.
    -- Stationary point found.
 Normal termination of Gaussian 09 at Fri Mar 14 14:08:41 2025.
