 Gaussian 09, Revision D.01,
 Gaussian 09:  ES64L-G09RevD.01 24-Apr-2013

 ---------------------------------
 #m062X/6-31+G(d) OPT Freq=noraman
 ---------------------------------

 -----------------------
 bromo(trifluoro)methane
 -----------------------
 Symbolic Z-matrix:
 Charge =  0 Multiplicity = 1

 SCF Done:  E(RM062X) =  -2909.31746522     A.U. after   11 cycles
 SCF Done:  E(RM062X) =  -2909.31926448     A.U. after   11 cycles
 SCF Done:  E(RM062X) =  -2909.31943764     A.U. after    9 cycles
 SCF Done:  E(RM062X) =  -2909.31943438     A.U. after    8 cycles
 SCF Done:  E(RM062X) =  -2909.31945045     A.U. after    8 cycles
 Optimization completed.
    -- Stationary point found.
 Normal termination of Gaussian 09 at Thu Mar 13 15:36:41 2025.

 ---------------------------------------------------------------------
 #N Geom=AllCheck Guess=TCheck SCRF=Check GenChk RM062X/6-31+G(d) Freq
 ---------------------------------------------------------------------

 Structure from the checkpoint file:  "/srv/scratch/z5358697/gauss/Gau-1682125.chk"
 -----------------------
 bromo(trifluoro)methane
 -----------------------
 Charge =  0 Multiplicity = 1

                         Standard orientation:
 ---------------------------------------------------------------------
 Center     Atomic      Atomic             Coordinates (Angstroms)
 Number     Number       Type             X           Y           Z
 ---------------------------------------------------------------------
      1          6           0       -0.801735   -0.000099    0.000051
      2          9           0       -1.265168    0.209656    1.226313
      3          9           0       -1.265116    0.957458   -0.794700
      4          9           0       -1.265105   -1.167070   -0.431669
      5         35           0        1.113398    0.000006    0.000006
 ---------------------------------------------------------------------

 SCF Done:  E(RM062X) =  -2909.31945045     A.U. after    1 cycles

 The electronic state is 1-A.
 Alpha  occ. eigenvalues -- -485.51425 -62.79650 -57.33002 -57.32683 -57.32682
 Alpha  occ. eigenvalues --  -25.33697 -25.33686 -25.33677 -10.87851  -8.97098
 Alpha  occ. eigenvalues --   -6.92644  -6.91489  -6.91489  -2.95499  -2.95094
 Alpha  occ. eigenvalues --   -2.95093  -2.94070  -2.94070  -1.51001  -1.41406
 Alpha  occ. eigenvalues --   -1.41394  -0.93886  -0.82186  -0.73050  -0.73047
 Alpha  occ. eigenvalues --   -0.68593  -0.60444  -0.60443  -0.56620  -0.56615
 Alpha  occ. eigenvalues --   -0.54373  -0.47941  -0.38945  -0.38937
 Alpha virt. eigenvalues --   -0.01052   0.01336   0.04630   0.05272   0.05279
 Alpha virt. eigenvalues --    0.06884   0.06885   0.08373   0.15252   0.17936
 Alpha virt. eigenvalues --    0.17945   0.23949   0.24201   0.24202   0.27635

 Mulliken charges:
               1
     1  C    0.682816
     2  F   -0.232782
     3  F   -0.232644
     4  F   -0.232882
     5  Br   0.015492
 Sum of Mulliken charges =   0.00000

 Dipole moment (field-independent basis, Debye):
    X=              0.6574    Y=             -0.0008    Z=              0.0020  Tot=              0.6574
 Quadrupole moment (field-independent basis, Debye-Ang):
   XX=            -37.4762   YY=            -39.7269   ZZ=            -39.7288
   XY=              0.0007   XZ=             -0.0016   YZ=              0.0000

  Exact polarizability:  41.191  -0.019  28.211   0.010   0.020  28.246
 Approx polarizability:  49.706  -0.002  34.922   0.002   0.001  34.924

                      1                      2                      3
                      A                      A                      A
 Frequencies --    311.2146               313.0113               359.5956
 Red. masses --     19.7008                19.6951                28.0700
 Frc consts  --      1.1242                 1.1369                 2.1386
 IR Inten    --      0.0028                 0.0046                 0.0151

                      4                      5                      6
                      A                      A                      A
 Frequencies --    548.5146               551.0485               770.7289
 Red. masses --     18.0497                18.0615                17.0046
 Frc consts  --      3.1996                 3.2314                 5.9514
 IR Inten    --      2.2741                 2.0155                54.3509

                      7                      8                      9
                      A                      A                      A
 Frequencies --   1121.4726              1266.2584              1269.9911
 Red. masses --     13.6910                13.2873                13.2760
 Frc consts  --     10.1452                12.5525                12.6159
 IR Inten    --    529.5078               288.6450               288.9138

 - Thermochemistry -
 -------------------
 Temperature   298.150 Kelvin.  Pressure   1.00000 Atm.
 Atom     1 has atomic number  6 and mass  12.00000

 Molecular mass:   147.91355 amu.
 Principal axes and moments of inertia in atomic units:
                           1         2         3
     Eigenvalues --   315.10140 859.28019 859.34836
           X            1.00000   0.00000   0.00000
           Y            0.00000   1.00000   0.00000
           Z            0.00000   0.00000   1.00000
 This molecule is an asymmetric top.
 Rotational symmetry number  1.
 Rotational temperatures (Kelvin)      0.27488     0.10080     0.10079
 Rotational constants (GHZ):           5.72749     2.10029     2.10013
 Zero-point vibrational energy      38949.4 (Joules/Mol)
                                    9.30914 (Kcal/Mol)
 Warning -- explicit consideration of   5 degrees of freedom as
           vibrations may cause significant error
 Vibrational temperatures:    447.77   450.35   517.38   789.19   792.83
          (Kelvin)           1108.91  1613.55  1821.86  1827.23

 Zero-point correction=                           0.014835 (Hartree/Particle)
 Thermal correction to Energy=                    0.019344
 Thermal correction to Enthalpy=                  0.020288
 Thermal correction to Gibbs Free Energy=        -0.014442
 Sum of electronic and zero-point Energies=          -2909.304615
 Sum of electronic and thermal Energies=             -2909.300106
 Sum of electronic and thermal Enthalpies=           -2909.299162
 Sum of electronic and thermal Free Energies=        -2909.333893

                     E (Thermal)             CV                S
                      KCal/Mol        Cal/Mol-Kelvin    Cal/Mol-Kelvin
 Total                   12.139             14.390             73.097
 Electronic               0.000              0.000              0.000
 Translational            0.889              2.981             40.885
 Rotational               0.889              2.981             26.945
 Vibrational             10.361              8.428              5.267
 Vibration     1          0.700              1.652              1.356
 Vibration     2          0.701              1.649              1.346
 Vibration     3          0.734              1.556              1.124
 Vibration     4          0.904              1.143              0.547
 Vibration     5          0.906              1.137              0.542

 Optimization completed.
    -- Stationary point found.
 Normal termination of Gaussian 09 at Thu Mar 13 15:37:20 2025.
