 Gaussian 09, Revision D.01,
 Gaussian 09:  ES64L-G09RevD.01 24-Apr-2013

 ---------------------------------
 #m062X/6-31+G(d) OPT Freq=noraman
 ---------------------------------

 ------------------------
 2-bromo-2-methyl-propane
 ------------------------
 Symbolic Z-matrix:
 Charge =  0 Multiplicity = 1

 SCF Done:  E(RM062X) =  -2729.57501634     A.U. after   11 cycles
 SCF Done:  E(RM062X) =  -2729.57590411     A.U. after   11 cycles
 SCF Done:  E(RM062X) =  -2729.57598440     A.U. after   10 cycles
 SCF Done:  E(RM062X) =  -2729.57598403     A.U. after    9 cycles
 SCF Done:  E(RM062X) =  -2729.57599763     A.U. after    8 cycles
 SCF Done:  E(RM062X) =  -2729.57599808     A.U. after    8 cycles
 SCF Done:  E(RM062X) =  -2729.57598822     A.U. after    8 cycles
 Optimization completed.
    -- Stationary point found.
 Normal termination of Gaussian 09 at Mon Mar 17 18:38:48 2025.

 ---------------------------------------------------------------------
 #N Geom=AllCheck Guess=TCheck SCRF=Check GenChk RM062X/6-31+G(d) Freq
 ---------------------------------------------------------------------

 Structure from the checkpoint file:  "/srv/scratch/z5358697/gauss/Gau-2756697.chk"
 ------------------------
 2-bromo-2-methyl-propane
 ------------------------
 Charge =  0 Multiplicity = 1

                         Standard orientation:
 ---------------------------------------------------------------------
 Center     Atomic      Atomic             Coordinates (Angstroms)
 Number     Number       Type             X           Y           Z
 ---------------------------------------------------------------------
      1          6           0       -1.270487   -1.285713    0.682546
      2          6           0       -0.830823    0.000065    0.000058
      3          6           0       -1.271029    1.233706    0.772338
      4          6           0       -1.271957    0.051745   -1.454229
      5         35           0        1.153778    0.000082   -0.000202
      6          1           0       -0.902079   -2.161695    0.141650
      7          1           0       -0.900176   -1.329663    1.710460
      8          1           0       -2.367275   -1.324176    0.704285
      9          1           0       -0.900054    2.145967    0.297163
     10          1           0       -2.367810    1.271611    0.793671
     11          1           0       -0.903728    1.202731    1.801790
     12          1           0       -0.904086    0.958020   -1.943062
     13          1           0       -2.368808    0.052189   -1.496784
     14          1           0       -0.902423   -0.816666   -2.006390
 ---------------------------------------------------------------------

 SCF Done:  E(RM062X) =  -2729.57598822     A.U. after    1 cycles

 The electronic state is 1-A.
 Alpha  occ. eigenvalues -- -485.45934 -62.74052 -57.27139 -57.26885 -57.26885
 Alpha  occ. eigenvalues --  -10.62273 -10.55295 -10.55295 -10.55293  -8.91130
 Alpha  occ. eigenvalues --   -6.86451  -6.85531  -6.85530  -2.89297  -2.88983
 Alpha  occ. eigenvalues --   -2.88982  -2.88165  -2.88165  -0.95248  -0.81900
 Alpha  occ. eigenvalues --   -0.79873  -0.79871  -0.63045  -0.54026  -0.52743
 Alpha  occ. eigenvalues --   -0.52742  -0.47357  -0.47354  -0.44482  -0.41762
 Alpha  occ. eigenvalues --   -0.41760  -0.38733  -0.32820  -0.32817
 Alpha virt. eigenvalues --    0.01621   0.02105   0.03640   0.03641   0.03839
 Alpha virt. eigenvalues --    0.06357   0.06359   0.06905   0.07953   0.07960
 Alpha virt. eigenvalues --    0.10487   0.11348   0.11351   0.11662   0.12528

 Mulliken charges:
               1
     1  C   -0.434013
     2  C   -0.795050
     3  C   -0.433834
     4  C   -0.433172
     5  Br  -0.003007
     6  H    0.238516
     7  H    0.238517
     8  H    0.222697
     9  H    0.238562
    10  H    0.222687
    11  H    0.238423
    12  H    0.238468
    13  H    0.222708
    14  H    0.238496
 Sum of Mulliken charges =   0.00000

 Dipole moment (field-independent basis, Debye):
    X=             -2.4682    Y=              0.0001    Z=              0.0008  Tot=              2.4682
 Quadrupole moment (field-independent basis, Debye-Ang):
   XX=            -45.4829   YY=            -45.7261   ZZ=            -45.7246
   XY=              0.0000   XZ=              0.0011   YZ=             -0.0008

  Exact polarizability:  78.234   0.004  61.949  -0.078  -0.030  61.770
 Approx polarizability:  93.999   0.001  72.673   0.000   0.001  72.662

                      1                      2                      3
                      A                      A                      A
 Frequencies --    268.5741               296.5094               297.7466
 Red. masses --      1.0143                 2.6102                 2.6723
 Frc consts  --      0.0431                 0.1352                 0.1396
 IR Inten    --      0.0042                 0.2118                 0.2257

                      4                      5                      6
                      A                      A                      A
 Frequencies --    321.0339               323.6978               329.2283
 Red. masses --      3.1160                 1.1307                 1.0420
 Frc consts  --      0.1892                 0.0698                 0.0665
 IR Inten    --      3.8479                 0.4939                 0.0618

                      7                      8                      9
                      A                      A                      A
 Frequencies --    399.4443               400.9815               547.4384
 Red. masses --      2.3203                 2.3316                 2.7578
 Frc consts  --      0.2181                 0.2209                 0.4870
 IR Inten    --      0.2504                 0.2341                22.5999

                     10                     11                     12
                      A                      A                      A
 Frequencies --    845.2804               954.7606               956.5591
 Red. masses --      2.9492                 1.5121                 1.5151
 Frc consts  --      1.2415                 0.8121                 0.8168
 IR Inten    --      8.3873                 0.0982                 0.0622

                     13                     14                     15
                      A                      A                      A
 Frequencies --    984.5499              1065.4757              1066.7499
 Red. masses --      1.2045                 1.4243                 1.4251
 Frc consts  --      0.6879                 0.9527                 0.9555
 IR Inten    --      0.0165                 0.2979                 0.2720

                     16                     17                     18
                      A                      A                      A
 Frequencies --   1191.5628              1286.1703              1287.9494
 Red. masses --      1.9083                 2.6619                 2.6913
 Frc consts  --      1.5963                 2.5944                 2.6303
 IR Inten    --     76.0661                 2.7532                 2.7909

                     19                     20                     21
                      A                      A                      A
 Frequencies --   1427.2923              1428.8815              1452.6959
 Red. masses --      1.2998                 1.2973                 1.2304
 Frc consts  --      1.5601                 1.5606                 1.5298
 IR Inten    --     17.2847                17.1843                 1.5876

                     22                     23                     24
                      A                      A                      A
 Frequencies --   1499.4915              1508.5115              1509.5358
 Red. masses --      1.0435                 1.0451                 1.0455
 Frc consts  --      1.3824                 1.4012                 1.4037
 IR Inten    --      0.0304                 0.3644                 0.3866

                     25                     26                     27
                      A                      A                      A
 Frequencies --   1525.5749              1526.7870              1540.5558
 Red. masses --      1.0584                 1.0584                 1.0504
 Frc consts  --      1.4514                 1.4537                 1.4687
 IR Inten    --     10.0763                 9.8692                 8.4718

                     28                     29                     30
                      A                      A                      A
 Frequencies --   3063.1365              3063.5995              3069.7861
 Red. masses --      1.0395                 1.0393                 1.0397
 Frc consts  --      5.7466                 5.7473                 5.7728
 IR Inten    --     13.3693                13.2078                41.7491

                     31                     32                     33
                      A                      A                      A
 Frequencies --   3141.7538              3142.1824              3146.5286
 Red. masses --      1.0968                 1.0969                 1.0966
 Frc consts  --      6.3784                 6.3808                 6.3969
 IR Inten    --      4.7802                 3.7144                31.9183

                     34                     35                     36
                      A                      A                      A
 Frequencies --   3167.9823              3170.4449              3171.1550
 Red. masses --      1.1044                 1.1038                 1.1037
 Frc consts  --      6.5305                 6.5369                 6.5396
 IR Inten    --      1.2605                15.0991                16.9079

 - Thermochemistry -
 -------------------
 Temperature   298.150 Kelvin.  Pressure   1.00000 Atm.
 Atom     1 has atomic number  6 and mass  12.00000

 Molecular mass:   135.98876 amu.
 Principal axes and moments of inertia in atomic units:
                           1         2         3
     Eigenvalues --   397.92594 875.99087 876.02653
           X            1.00000  -0.00001   0.00003
           Y            0.00001   0.99984  -0.01800
           Z           -0.00003   0.01800   0.99984
 This molecule is an asymmetric top.
 Rotational symmetry number  1.
 Rotational temperatures (Kelvin)      0.21766     0.09888     0.09887
 Rotational constants (GHZ):           4.53537     2.06023     2.06014
 Zero-point vibrational energy     325262.3 (Joules/Mol)
                                   77.73955 (Kcal/Mol)
 Warning -- explicit consideration of   9 degrees of freedom as
           vibrations may cause significant error
 Vibrational temperatures:    386.42   426.61   428.39   461.90   465.73
          (Kelvin)            473.69   574.71   576.92   787.64  1216.17
                             1373.69  1376.27  1416.55  1532.98  1534.81
                             1714.39  1850.51  1853.07  2053.55  2055.84
                             2090.10  2157.43  2170.41  2171.88  2194.96
                             2196.70  2216.51  4407.16  4407.83  4416.73
                             4520.28  4520.89  4527.15  4558.01  4561.56
                             4562.58

 Zero-point correction=                           0.123886 (Hartree/Particle)
 Thermal correction to Energy=                    0.130345
 Thermal correction to Enthalpy=                  0.131289
 Thermal correction to Gibbs Free Energy=         0.093513
 Sum of electronic and zero-point Energies=          -2729.452102
 Sum of electronic and thermal Energies=             -2729.445644
 Sum of electronic and thermal Enthalpies=           -2729.444700
 Sum of electronic and thermal Free Energies=        -2729.482475

                     E (Thermal)             CV                S
                      KCal/Mol        Cal/Mol-Kelvin    Cal/Mol-Kelvin
 Total                   81.792             23.687             79.506
 Electronic               0.000              0.000              0.000
 Translational            0.889              2.981             40.634
 Rotational               0.889              2.981             27.215
 Vibrational             80.015             17.726             11.657
 Vibration     1          0.673              1.731              1.605
 Vibration     2          0.690              1.680              1.437
 Vibration     3          0.691              1.678              1.430
 Vibration     4          0.707              1.633              1.305
 Vibration     5          0.708              1.628              1.291
 Vibration     6          0.712              1.617              1.264
 Vibration     7          0.765              1.471              0.965
 Vibration     8          0.767              1.468              0.959
 Vibration     9          0.903              1.145              0.550

 Normal termination of Gaussian 09 at Mon Mar 17 18:41:56 2025.
