 Gaussian 09, Revision D.01,
 Gaussian 09:  ES64L-G09RevD.01 24-Apr-2013

 ---------------------------------
 #m062X/6-31+G(d) OPT Freq=noraman
 ---------------------------------

 -----------------
 2-methylbut-2-ene
 -----------------
 Symbolic Z-matrix:
 Charge =  0 Multiplicity = 1

 SCF Done:  E(RM062X) =  -196.429475949     A.U. after   12 cycles
 SCF Done:  E(RM062X) =  -196.431457095     A.U. after   11 cycles
 SCF Done:  E(RM062X) =  -196.432311287     A.U. after   11 cycles
 SCF Done:  E(RM062X) =  -196.432872357     A.U. after   13 cycles
 SCF Done:  E(RM062X) =  -196.433077943     A.U. after   11 cycles
 SCF Done:  E(RM062X) =  -196.433200639     A.U. after   10 cycles
 SCF Done:  E(RM062X) =  -196.433393118     A.U. after   11 cycles
 SCF Done:  E(RM062X) =  -196.433543036     A.U. after   11 cycles
 SCF Done:  E(RM062X) =  -196.433575009     A.U. after    9 cycles
 SCF Done:  E(RM062X) =  -196.433592505     A.U. after    9 cycles
 SCF Done:  E(RM062X) =  -196.433624950     A.U. after    9 cycles
 SCF Done:  E(RM062X) =  -196.433697014     A.U. after   11 cycles
 SCF Done:  E(RM062X) =  -196.433701411     A.U. after    9 cycles
 SCF Done:  E(RM062X) =  -196.433701804     A.U. after    8 cycles
 SCF Done:  E(RM062X) =  -196.433701935     A.U. after    8 cycles
 SCF Done:  E(RM062X) =  -196.433701970     A.U. after    8 cycles
 Optimization completed.
    -- Stationary point found.
 Normal termination of Gaussian 09 at Fri Mar 21 15:08:58 2025.

 ---------------------------------------------------------------------
 #N Geom=AllCheck Guess=TCheck SCRF=Check GenChk RM062X/6-31+G(d) Freq
 ---------------------------------------------------------------------

 Structure from the checkpoint file:  "/srv/scratch/z5358697/gauss/Gau-51451.chk"
 -----------------
 2-methylbut-2-ene
 -----------------
 Charge =  0 Multiplicity = 1

                         Standard orientation:
 ---------------------------------------------------------------------
 Center     Atomic      Atomic             Coordinates (Angstroms)
 Number     Number       Type             X           Y           Z
 ---------------------------------------------------------------------
      1          6           0        2.109758   -0.075289   -0.000010
      2          6           0        0.733464   -0.676553    0.000031
      3          6           0       -0.446471   -0.043160    0.000026
      4          6           0       -1.740986   -0.816452   -0.000014
      5          6           0       -0.625208    1.452725   -0.000001
      6          1           0        2.675225   -0.403825    0.880069
      7          1           0        2.674859   -0.403106   -0.880603
      8          1           0        2.098366    1.016566    0.000415
      9          1           0        0.710590   -1.767493    0.000004
     10          1           0       -2.345142   -0.564381    0.880846
     11          1           0       -2.345097   -0.564372   -0.880904
     12          1           0       -1.568888   -1.896419   -0.000020
     13          1           0       -1.200278    1.766492   -0.880350
     14          1           0       -1.200321    1.766497    0.880320
     15          1           0        0.317346    2.002416    0.000027
 ---------------------------------------------------------------------

 SCF Done:  E(RM062X) =  -196.433701970     A.U. after    1 cycles

 The electronic state is 1-A.
 Alpha  occ. eigenvalues --  -10.55141 -10.53981 -10.53855 -10.53755 -10.53699
 Alpha  occ. eigenvalues --   -0.91181  -0.82769  -0.78190  -0.72226  -0.58705
 Alpha  occ. eigenvalues --   -0.53128  -0.50143  -0.50068  -0.46882  -0.44708
 Alpha  occ. eigenvalues --   -0.44484  -0.43101  -0.41503  -0.38519  -0.28629
 Alpha virt. eigenvalues --    0.02747   0.03635   0.04353   0.04501   0.05487
 Alpha virt. eigenvalues --    0.06273   0.06830   0.08167   0.09109   0.09368
 Alpha virt. eigenvalues --    0.09517   0.11062   0.13491   0.13621   0.14849

 Mulliken charges:
               1
     1  C   -0.940238
     2  C   -0.079419
     3  C    0.551167
     4  C   -0.761883
     5  C   -0.855348
     6  H    0.218462
     7  H    0.218481
     8  H    0.198876
     9  H    0.179181
    10  H    0.213457
    11  H    0.213456
    12  H    0.208384
    13  H    0.216958
    14  H    0.216956
    15  H    0.201509
 Sum of Mulliken charges =   0.00000

 Dipole moment (field-independent basis, Debye):
    X=             -0.0677    Y=              0.1834    Z=             -0.0001  Tot=              0.1955
 Quadrupole moment (field-independent basis, Debye-Ang):
   XX=            -32.5205   YY=            -32.9276   ZZ=            -35.0036
   XY=             -0.3363   XZ=              0.0000   YZ=              0.0000

  Exact polarizability:  75.413  -6.356  58.495  -0.001   0.000  46.246
 Approx polarizability:  80.527 -10.147  64.885  -0.001   0.000  54.971

                      1                      2                      3
                      A                      A                      A
 Frequencies --    105.4394               137.8658               198.3186
 Red. masses --      1.0382                 1.0349                 1.2766
 Frc consts  --      0.0068                 0.0116                 0.0296
 IR Inten    --      0.4553                 0.5033                 2.0023

                      4                      5                      6
                      A                      A                      A
 Frequencies --    276.5487               304.5717               390.4885
 Red. masses --      1.6474                 2.6451                 2.2366
 Frc consts  --      0.0742                 0.1446                 0.2009
 IR Inten    --      1.4764                 0.1603                 0.2118

                      7                      8                      9
                      A                      A                      A
 Frequencies --    454.2100               523.9305               787.8438
 Red. masses --      2.2295                 2.7547                 2.7906
 Frc consts  --      0.2710                 0.4455                 1.0205
 IR Inten    --      3.8879                 1.8883                 1.5847

                     10                     11                     12
                      A                      A                      A
 Frequencies --    839.2100               973.6842               985.5095
 Red. masses --      1.1274                 1.4496                 1.5079
 Frc consts  --      0.4678                 0.8097                 0.8629
 IR Inten    --     14.7911                 1.3004                 2.9309

                     13                     14                     15
                      A                      A                      A
 Frequencies --   1027.5193              1072.5728              1080.5401
 Red. masses --      1.2409                 1.5157                 1.6358
 Frc consts  --      0.7719                 1.0274                 1.1253
 IR Inten    --      2.8681                 2.5306                 4.6205

                     16                     17                     18
                      A                      A                      A
 Frequencies --   1116.6908              1150.8570              1255.6048
 Red. masses --      1.6422                 2.1294                 2.3189
 Frc consts  --      1.2066                 1.6617                 2.1540
 IR Inten    --      0.0577                 7.8142                 3.9358

                     19                     20                     21
                      A                      A                      A
 Frequencies --   1380.3500              1437.0311              1442.2256
 Red. masses --      1.2837                 1.2834                 1.5514
 Frc consts  --      1.4410                 1.5615                 1.9012
 IR Inten    --      2.1224                 6.6427                 4.9541

                     22                     23                     24
                      A                      A                      A
 Frequencies --   1447.5735              1496.8309              1507.9916
 Red. masses --      1.2469                 1.0443                 1.0455
 Frc consts  --      1.5395                 1.3785                 1.4008
 IR Inten    --      2.7576                 0.4358                 2.6108

                     25                     26                     27
                      A                      A                      A
 Frequencies --   1508.9429              1517.4439              1523.3243
 Red. masses --      1.0435                 1.0414                 1.0683
 Frc consts  --      1.3999                 1.4129                 1.4606
 IR Inten    --      2.0235                23.6234                 6.3229

                     28                     29                     30
                      A                      A                      A
 Frequencies --   1525.0148              1785.5059              3060.8840
 Red. masses --      1.0617                 6.7394                 1.0365
 Frc consts  --      1.4547                12.6589                 5.7214
 IR Inten    --     11.3316                 1.7286                29.6774

                     31                     32                     33
                      A                      A                      A
 Frequencies --   3067.0157              3070.4743              3116.6826
 Red. masses --      1.0387                 1.0401                 1.1004
 Frc consts  --      5.7568                 5.7775                 6.2977
 IR Inten    --     56.7117                11.9927                13.7505

                     34                     35                     36
                      A                      A                      A
 Frequencies --   3118.3249              3121.0228              3147.8695
 Red. masses --      1.0998                 1.1004                 1.0948
 Frc consts  --      6.3010                 6.3151                 6.3916
 IR Inten    --     27.3800                16.1465                 5.1669

                     37                     38                     39
                      A                      A                      A
 Frequencies --   3152.0628              3165.3701              3180.3522
 Red. masses --      1.0979                 1.0976                 1.0959
 Frc consts  --      6.4272                 6.4794                 6.5307
 IR Inten    --     19.5652                27.4293                33.4697

 - Thermochemistry -
 -------------------
 Temperature   298.150 Kelvin.  Pressure   1.00000 Atm.
 Atom     1 has atomic number  6 and mass  12.00000

 Molecular mass:    70.07825 amu.
 Principal axes and moments of inertia in atomic units:
                           1         2         3
     Eigenvalues --   223.87589 514.08849 704.48032
           X            0.99996   0.00895   0.00000
           Y           -0.00895   0.99996   0.00000
           Z            0.00000   0.00000   1.00000
 This molecule is an asymmetric top.
 Rotational symmetry number  1.
 Rotational temperatures (Kelvin)      0.38688     0.16848     0.12295
 Rotational constants (GHZ):           8.06135     3.51057     2.56180
 Zero-point vibrational energy     361593.4 (Joules/Mol)
                                   86.42290 (Kcal/Mol)
 Warning -- explicit consideration of   8 degrees of freedom as
           vibrations may cause significant error
 Vibrational temperatures:    151.70   198.36   285.34   397.89   438.21
          (Kelvin)            561.83   653.51   753.82  1133.53  1207.43
                             1400.91  1417.93  1478.37  1543.19  1554.65
                             1606.67  1655.82  1806.53  1986.01  2067.56
                             2075.04  2082.73  2153.60  2169.66  2171.03
                             2183.26  2191.72  2194.15  2568.94  4403.92
                             4412.75  4417.72  4484.21  4486.57  4490.45
                             4529.08  4535.11  4554.26  4575.81

 Zero-point correction=                           0.137724 (Hartree/Particle)
 Thermal correction to Energy=                    0.144590
 Thermal correction to Enthalpy=                  0.145534
 Thermal correction to Gibbs Free Energy=         0.107850
 Sum of electronic and zero-point Energies=           -196.295978
 Sum of electronic and thermal Energies=              -196.289112
 Sum of electronic and thermal Enthalpies=            -196.288168
 Sum of electronic and thermal Free Energies=         -196.325852

                     E (Thermal)             CV                S
                      KCal/Mol        Cal/Mol-Kelvin    Cal/Mol-Kelvin
 Total                   90.732             23.616             79.313
 Electronic               0.000              0.000              0.000
 Translational            0.889              2.981             38.658
 Rotational               0.889              2.981             25.897
 Vibrational             88.954             17.654             14.758
 Vibration     1          0.605              1.945              3.351
 Vibration     2          0.614              1.916              2.833
 Vibration     3          0.637              1.842              2.149
 Vibration     4          0.678              1.717              1.555
 Vibration     5          0.695              1.665              1.392
 Vibration     6          0.758              1.491              0.998
 Vibration     7          0.813              1.352              0.783
 Vibration     8          0.879              1.197              0.601

 Optimization completed.
    -- Stationary point found.
 Normal termination of Gaussian 09 at Fri Mar 21 15:11:40 2025.
