 Gaussian 09, Revision D.01,
 Gaussian 09:  ES64L-G09RevD.01 24-Apr-2013

 ---------------------------------
 #m062X/6-31+G(d) OPT Freq=noraman
 ---------------------------------

 ----------------------
 1,2,4-trichlorobenzene
 ----------------------
 Symbolic Z-matrix:
 Charge =  0 Multiplicity = 1

 SCF Done:  E(RM062X) =  -1610.84740622     A.U. after   15 cycles
 SCF Done:  E(RM062X) =  -1610.84798677     A.U. after   12 cycles
 SCF Done:  E(RM062X) =  -1610.84803962     A.U. after   12 cycles
 SCF Done:  E(RM062X) =  -1610.84804210     A.U. after   10 cycles
 Optimization completed.
    -- Stationary point found.
 Normal termination of Gaussian 09 at Mon Mar 17 14:44:42 2025.

 ---------------------------------------------------------------------
 #N Geom=AllCheck Guess=TCheck SCRF=Check GenChk RM062X/6-31+G(d) Freq
 ---------------------------------------------------------------------

 Structure from the checkpoint file:  "/srv/scratch/z5358697/gauss/Gau-2697776.chk"
 ----------------------
 1,2,4-trichlorobenzene
 ----------------------
 Charge =  0 Multiplicity = 1

                         Standard orientation:
 ---------------------------------------------------------------------
 Center     Atomic      Atomic             Coordinates (Angstroms)
 Number     Number       Type             X           Y           Z
 ---------------------------------------------------------------------
      1          6           0        1.296743   -1.466133   -0.000059
      2          6           0       -0.065759   -1.739130   -0.000054
      3          6           0       -0.998238   -0.703646   -0.000128
      4          6           0       -0.556041    0.621820   -0.000137
      5          6           0        0.808238    0.905846   -0.000100
      6          6           0        1.721346   -0.140860   -0.000099
      7         17           0        3.423078    0.216746    0.000093
      8         17           0       -1.676941    1.942145    0.000026
      9         17           0       -2.686437   -1.086362    0.000085
     10          1           0        2.022182   -2.272392    0.000020
     11          1           0       -0.419814   -2.764883    0.000038
     12          1           0        1.145004    1.936884   -0.000070
 ---------------------------------------------------------------------

 SCF Done:  E(RM062X) =  -1610.84804210     A.U. after    1 cycles

 The electronic state is 1-A.
 Alpha  occ. eigenvalues -- -102.69113-102.69018-102.68873 -10.64914 -10.64524
 Alpha  occ. eigenvalues --  -10.64311 -10.59730 -10.59641 -10.59302  -9.83757
 Alpha  occ. eigenvalues --   -9.83661  -9.83540  -7.56181  -7.56085  -7.55955
 Alpha  occ. eigenvalues --   -7.55490  -7.55461  -7.55394  -7.55367  -7.55273
 Alpha  occ. eigenvalues --   -7.55258  -1.04659  -1.00229  -0.97550  -0.93551
 Alpha  occ. eigenvalues --   -0.86868  -0.83034  -0.73413  -0.69638  -0.61093
 Alpha  occ. eigenvalues --   -0.58950  -0.56004  -0.52754  -0.52115  -0.51606
 Alpha  occ. eigenvalues --   -0.46632  -0.46373  -0.45698  -0.42849  -0.40714
 Alpha  occ. eigenvalues --   -0.39467  -0.39172  -0.38540  -0.33210  -0.30903
 Alpha virt. eigenvalues --   -0.01680  -0.01246   0.01052   0.01228   0.02124
 Alpha virt. eigenvalues --    0.03008   0.04313   0.05521   0.05827   0.05994
 Alpha virt. eigenvalues --    0.07459   0.07507   0.08028   0.08831   0.09300

 Mulliken charges:
               1
     1  C   -0.246199
     2  C   -0.425751
     3  C   -0.301983
     4  C   -0.233841
     5  C   -0.239961
     6  C    0.039199
     7  Cl   0.200521
     8  Cl   0.234743
     9  Cl   0.234047
    10  H    0.241111
    11  H    0.242359
    12  H    0.255755
 Sum of Mulliken charges =   0.00000

 Dipole moment (field-independent basis, Debye):
    X=              0.7719    Y=             -1.1473    Z=              0.0001  Tot=              1.3828
 Quadrupole moment (field-independent basis, Debye-Ang):
   XX=            -76.5710   YY=            -66.4620   ZZ=            -74.9030
   XY=             -0.6447   XZ=             -0.0001   YZ=             -0.0002

  Exact polarizability: 145.075  -1.042 106.827   0.008  -0.003  55.348
 Approx polarizability: 168.539  -1.734 137.209   0.000   0.000  70.908

                      1                      2                      3
                      A                      A                      A
 Frequencies --     94.7391               167.6944               197.4634
 Red. masses --     10.7045                 6.0438                23.2889
 Frc consts  --      0.0566                 0.1001                 0.5350
 IR Inten    --      0.4777                 0.1485                 0.2309

                      4                      5                      6
                      A                      A                      A
 Frequencies --    212.3421               306.5449               333.7790
 Red. masses --     22.6598                 7.2531                23.5028
 Frc consts  --      0.6020                 0.4016                 1.5427
 IR Inten    --      0.1708                 0.2569                 0.0154

                      7                      8                      9
                      A                      A                      A
 Frequencies --    404.7066               447.8544               464.2450
 Red. masses --      8.1253                 3.1593                 7.5955
 Frc consts  --      0.7841                 0.3734                 0.9645
 IR Inten    --      1.6124                 5.7944                 1.8220

                     10                     11                     12
                      A                      A                      A
 Frequencies --    560.7275               586.1087               691.7662
 Red. masses --      4.8131                 9.5306                 7.3983
 Frc consts  --      0.8916                 1.9290                 2.0859
 IR Inten    --      5.3234                30.5080                 7.9529

                     13                     14                     15
                      A                      A                      A
 Frequencies --    699.0176               830.9270               833.9159
 Red. masses --      4.4944                 1.3624                 8.6430
 Frc consts  --      1.2939                 0.5542                 3.5413
 IR Inten    --      0.4356                32.5581                39.4899

                     16                     17                     18
                      A                      A                      A
 Frequencies --    901.8390               974.6995              1050.7494
 Red. masses --      1.3847                 1.3313                 6.4353
 Frc consts  --      0.6635                 0.7452                 4.1862
 IR Inten    --     16.1468                 0.7776                56.2999

                     19                     20                     21
                      A                      A                      A
 Frequencies --   1137.5683              1173.4975              1186.9889
 Red. masses --      1.7832                 1.3517                 4.4934
 Frc consts  --      1.3596                 1.0967                 3.7300
 IR Inten    --     50.6295                10.3420                15.5991

                     22                     23                     24
                      A                      A                      A
 Frequencies --   1278.9833              1315.4957              1430.2690
 Red. masses --      1.3012                10.9910                 3.5645
 Frc consts  --      1.2541                11.2064                 4.2962
 IR Inten    --      4.5283                 2.1162                23.2607

                     25                     26                     27
                      A                      A                      A
 Frequencies --   1516.1532              1648.5861              1667.7266
 Red. masses --      2.7030                 8.4924                 6.9034
 Frc consts  --      3.6608                13.5989                11.3126
 IR Inten    --    135.4943                10.6381                22.2570

                     28                     29                     30
                      A                      A                      A
 Frequencies --   3234.2600              3246.5053              3254.8613
 Red. masses --      1.0897                 1.0965                 1.0934
 Frc consts  --      6.7157                 6.8093                 6.8250
 IR Inten    --      0.0608                 0.0393                 1.7140

 - Thermochemistry -
 -------------------
 Temperature   298.150 Kelvin.  Pressure   1.00000 Atm.
 Atom     1 has atomic number  6 and mass  12.00000

 Molecular mass:   179.93003 amu.
 Principal axes and moments of inertia in atomic units:
                           1         2         3
     Eigenvalues --   979.037303018.608973997.64626
           X            1.00000  -0.00294   0.00000
           Y            0.00294   1.00000   0.00000
           Z            0.00000   0.00000   1.00000
 This molecule is an asymmetric top.
 Rotational symmetry number  1.
 Warning -- assumption of classical behavior for rotation
           may cause significant error
 Rotational temperatures (Kelvin)      0.08847     0.02869     0.02167
 Rotational constants (GHZ):           1.84338     0.59787     0.45145
 Zero-point vibrational energy     190505.4 (Joules/Mol)
                                   45.53188 (Kcal/Mol)
 Warning -- explicit consideration of  11 degrees of freedom as
           vibrations may cause significant error
 Vibrational temperatures:    136.31   241.27   284.11   305.51   441.05
          (Kelvin)            480.23   582.28   644.36   667.94   806.76
                              843.28   995.30  1005.73  1195.52  1199.82
                             1297.54  1402.37  1511.79  1636.71  1688.40
                             1707.81  1840.17  1892.70  2057.84  2181.40
                             2371.94  2399.48  4653.37  4670.99  4683.01

 Zero-point correction=                           0.072560 (Hartree/Particle)
 Thermal correction to Energy=                    0.080411
 Thermal correction to Enthalpy=                  0.081355
 Thermal correction to Gibbs Free Energy=         0.038506
 Sum of electronic and zero-point Energies=          -1610.775482
 Sum of electronic and thermal Energies=             -1610.767632
 Sum of electronic and thermal Enthalpies=           -1610.766687
 Sum of electronic and thermal Free Energies=        -1610.809536

                     E (Thermal)             CV                S
                      KCal/Mol        Cal/Mol-Kelvin    Cal/Mol-Kelvin
 Total                   50.458             28.403             90.182
 Electronic               0.000              0.000              0.000
 Translational            0.889              2.981             41.469
 Rotational               0.889              2.981             30.847
 Vibrational             48.681             22.441             17.866
 Vibration     1          0.603              1.953              3.560
 Vibration     2          0.624              1.882              2.461
 Vibration     3          0.637              1.843              2.157
 Vibration     4          0.643              1.822              2.023
 Vibration     5          0.697              1.661              1.381
 Vibration     6          0.715              1.608              1.242
 Vibration     7          0.770              1.460              0.946
 Vibration     8          0.807              1.366              0.802
 Vibration     9          0.822              1.329              0.754
 Vibration    10          0.916              1.116              0.522
 Vibration    11          0.943              1.061              0.474

 Optimization completed.
    -- Stationary point found.
 Normal termination of Gaussian 09 at Mon Mar 17 14:50:43 2025.
