 Gaussian 09, Revision D.01,
 Gaussian 09:  ES64L-G09RevD.01 24-Apr-2013

 ---------------------------------
 #m062X/6-31+G(d) OPT Freq=noraman
 ---------------------------------

 ------------
 cyclopentane
 ------------
 Symbolic Z-matrix:
 Charge =  0 Multiplicity = 1

 SCF Done:  E(RM062X) =  -196.450811291     A.U. after   10 cycles
 SCF Done:  E(RM062X) =  -196.452085828     A.U. after    9 cycles
 SCF Done:  E(RM062X) =  -196.452107659     A.U. after    9 cycles
 SCF Done:  E(RM062X) =  -196.452145387     A.U. after    9 cycles
 SCF Done:  E(RM062X) =  -196.452137349     A.U. after    7 cycles
 SCF Done:  E(RM062X) =  -196.452106335     A.U. after    7 cycles
 SCF Done:  E(RM062X) =  -196.452176880     A.U. after    7 cycles
 Optimization completed.
    -- Stationary point found.
 Normal termination of Gaussian 09 at Mon Mar 17 19:24:42 2025.

 ---------------------------------------------------------------------
 #N Geom=AllCheck Guess=TCheck SCRF=Check GenChk RM062X/6-31+G(d) Freq
 ---------------------------------------------------------------------

 Structure from the checkpoint file:  "/srv/scratch/z5358697/gauss/Gau-4064004.chk"
 ------------
 cyclopentane
 ------------
 Charge =  0 Multiplicity = 1

                         Standard orientation:
 ---------------------------------------------------------------------
 Center     Atomic      Atomic             Coordinates (Angstroms)
 Number     Number       Type             X           Y           Z
 ---------------------------------------------------------------------
      1          6           0        1.280125    0.238711    0.013786
      2          6           0        0.134443    1.278940    0.130506
      3          6           0       -1.144151    0.516021   -0.250205
      4          6           0       -0.869226   -0.900186    0.263061
      5          6           0        0.588205   -1.136978   -0.157466
      6          1           0        1.908886    0.254273    0.909532
      7          1           0        1.935922    0.456906   -0.834644
      8          1           0        0.051412    1.631193    1.165290
      9          1           0        0.300896    2.160814   -0.495320
     10          1           0       -2.049921    0.965151    0.169367
     11          1           0       -1.260294    0.491800   -1.341959
     12          1           0       -0.953925   -0.917230    1.358068
     13          1           0       -1.558068   -1.651643   -0.135716
     14          1           0        1.075721   -1.929553    0.418251
     15          1           0        0.612997   -1.440761   -1.210959
 ---------------------------------------------------------------------

 SCF Done:  E(RM062X) =  -196.452176880     A.U. after    1 cycles

 The electronic state is 1-A.
 Alpha  occ. eigenvalues --  -10.53655 -10.53633 -10.53631 -10.53595 -10.53593
 Alpha  occ. eigenvalues --   -0.93146  -0.79631  -0.79591  -0.64775  -0.63896
 Alpha  occ. eigenvalues --   -0.54985  -0.54516  -0.47838  -0.47693  -0.39517
 Alpha  occ. eigenvalues --   -0.39446  -0.38922  -0.38523  -0.38120  -0.37124
 Alpha virt. eigenvalues --    0.03063   0.04034   0.04177   0.04332   0.05511
 Alpha virt. eigenvalues --    0.07237   0.08369   0.08448   0.08631   0.12087
 Alpha virt. eigenvalues --    0.12096   0.12335   0.12471   0.13397   0.13776

 Mulliken charges:
               1
     1  C   -0.404500
     2  C   -0.423607
     3  C   -0.423569
     4  C   -0.424266
     5  C   -0.425631
     6  H    0.210982
     7  H    0.210738
     8  H    0.211347
     9  H    0.209655
    10  H    0.208745
    11  H    0.210465
    12  H    0.210515
    13  H    0.208673
    14  H    0.209390
    15  H    0.211063
 Sum of Mulliken charges =   0.00000

 Dipole moment (field-independent basis, Debye):
    X=             -0.0132    Y=             -0.0037    Z=              0.0004  Tot=              0.0137
 Quadrupole moment (field-independent basis, Debye-Ang):
   XX=            -34.2249   YY=            -34.2100   ZZ=            -33.0458
   XY=             -0.0037   XZ=              0.0006   YZ=             -0.0406

  Exact polarizability:  57.293  -0.058  57.260   0.007   0.131  50.890
 Approx polarizability:  61.233   0.011  61.193  -0.003   0.164  61.331

                      1                      2                      3
                      A                      A                      A
 Frequencies --     43.3973               280.3869               551.1842
 Red. masses --      1.5589                 1.5983                 1.6895
 Frc consts  --      0.0017                 0.0740                 0.3024
 IR Inten    --      0.0072                 0.0105                 0.7497

                      4                      5                      6
                      A                      A                      A
 Frequencies --    615.1642               774.5179               833.1840
 Red. masses --      2.4278                 1.1684                 1.6181
 Frc consts  --      0.5413                 0.4129                 0.6618
 IR Inten    --      0.1154                 0.8823                 0.2527

                      7                      8                      9
                      A                      A                      A
 Frequencies --    883.1991               906.6406               925.0448
 Red. masses --      1.9968                 3.2060                 2.0633
 Frc consts  --      0.9177                 1.5527                 1.0403
 IR Inten    --      0.6396                 0.6613                 2.1239

                     10                     11                     12
                      A                      A                      A
 Frequencies --    932.1602               976.8495              1011.1353
 Red. masses --      2.3224                 1.2383                 1.2439
 Frc consts  --      1.1890                 0.6962                 0.7493
 IR Inten    --      2.1924                 1.7276                 0.8364

                     13                     14                     15
                      A                      A                      A
 Frequencies --   1056.2359              1074.7961              1196.9351
 Red. masses --      1.5331                 2.0939                 1.5247
 Frc consts  --      1.0077                 1.4252                 1.2870
 IR Inten    --      0.0061                 0.0535                 0.0010

                     16                     17                     18
                      A                      A                      A
 Frequencies --   1215.1805              1241.1694              1249.7393
 Red. masses --      1.4861                 1.4248                 1.4711
 Frc consts  --      1.2930                 1.2932                 1.3537
 IR Inten    --      0.2945                 0.3516                 0.1332

                     19                     20                     21
                      A                      A                      A
 Frequencies --   1294.0389              1313.8501              1339.9048
 Red. masses --      1.1333                 1.3410                 1.2133
 Frc consts  --      1.1182                 1.3638                 1.2834
 IR Inten    --      0.9681                 0.0346                 0.7293

                     22                     23                     24
                      A                      A                      A
 Frequencies --   1356.9048              1364.7858              1365.6112
 Red. masses --      1.3213                 1.5188                 1.5351
 Frc consts  --      1.4334                 1.6668                 1.6867
 IR Inten    --      0.0197                 0.1095                 0.1549

                     25                     26                     27
                      A                      A                      A
 Frequencies --   1504.0683              1511.8577              1517.9502
 Red. masses --      1.0779                 1.0862                 1.0943
 Frc consts  --      1.4367                 1.4628                 1.4856
 IR Inten    --      0.2031                 5.6396                 4.3747

                     28                     29                     30
                      A                      A                      A
 Frequencies --   1519.7668              1548.0394              3063.7641
 Red. masses --      1.1004                 1.1110                 1.0704
 Frc consts  --      1.4974                 1.5686                 5.9197
 IR Inten    --      3.0478                 0.1666                17.2262

                     31                     32                     33
                      A                      A                      A
 Frequencies --   3069.8689              3077.2807              3083.6255
 Red. masses --      1.0645                 1.0634                 1.0629
 Frc consts  --      5.9107                 5.9331                 5.9547
 IR Inten    --     40.3241                30.3834                29.3169

                     34                     35                     36
                      A                      A                      A
 Frequencies --   3098.3723              3120.0408              3127.7507
 Red. masses --      1.0639                 1.0991                 1.0966
 Frc consts  --      6.0178                 6.3041                 6.3209
 IR Inten    --     51.8202                31.9599                14.6081

                     37                     38                     39
                      A                      A                      A
 Frequencies --   3133.0408              3134.8100              3148.8538
 Red. masses --      1.1022                 1.1024                 1.1060
 Frc consts  --      6.3744                 6.3827                 6.4610
 IR Inten    --     19.1665                27.3468                89.8876

 - Thermochemistry -
 -------------------
 Temperature   298.150 Kelvin.  Pressure   1.00000 Atm.
 Atom     1 has atomic number  6 and mass  12.00000

 Molecular mass:    70.07825 amu.
 Principal axes and moments of inertia in atomic units:
                           1         2         3
     Eigenvalues --   277.26974 277.50664 478.97931
           X            0.99738  -0.07229  -0.00002
           Y            0.07229   0.99738   0.00176
           Z           -0.00011  -0.00176   1.00000
 This molecule is an asymmetric top.
 Rotational symmetry number  1.
 Rotational temperatures (Kelvin)      0.31238     0.31211     0.18083
 Rotational constants (GHZ):           6.50897     6.50342     3.76789
 Zero-point vibrational energy     373600.4 (Joules/Mol)
                                   89.29263 (Kcal/Mol)
 Warning -- explicit consideration of   4 degrees of freedom as
           vibrations may cause significant error
 Vibrational temperatures:     62.44   403.41   793.03   885.08  1114.36
          (Kelvin)           1198.76  1270.72  1304.45  1330.93  1341.17
                             1405.47  1454.80  1519.69  1546.39  1722.12
                             1748.37  1785.76  1798.09  1861.83  1890.33
                             1927.82  1952.28  1963.62  1964.81  2164.02
                             2175.22  2183.99  2186.60  2227.28  4408.07
                             4416.85  4427.52  4436.64  4457.86  4489.04
                             4500.13  4507.74  4510.29  4530.49

 Zero-point correction=                           0.142297 (Hartree/Particle)
 Thermal correction to Energy=                    0.147400
 Thermal correction to Enthalpy=                  0.148344
 Thermal correction to Gibbs Free Energy=         0.113664
 Sum of electronic and zero-point Energies=           -196.309880
 Sum of electronic and thermal Energies=              -196.304777
 Sum of electronic and thermal Enthalpies=            -196.303832
 Sum of electronic and thermal Free Energies=         -196.338513

                     E (Thermal)             CV                S
                      KCal/Mol        Cal/Mol-Kelvin    Cal/Mol-Kelvin
 Total                   92.495             18.298             72.992
 Electronic               0.000              0.000              0.000
 Translational            0.889              2.981             38.658
 Rotational               0.889              2.981             25.114
 Vibrational             90.718             12.336              9.220
 Vibration     1          0.595              1.980              5.098
 Vibration     2          0.680              1.710              1.531
 Vibration     3          0.907              1.137              0.542
 Vibration     4          0.975              1.000              0.424

 Normal termination of Gaussian 09 at Mon Mar 17 19:27:30 2025.
