 Gaussian 09, Revision D.01,
 Gaussian 09:  ES64L-G09RevD.01 24-Apr-2013

 ---------------------------------
 #m062X/6-31+G(d) OPT Freq=noraman
 ---------------------------------

 -------------------------------
 2-chloro-1,1,1-trifluoro-ethane
 -------------------------------
 Symbolic Z-matrix:
 Charge =  0 Multiplicity = 1

 SCF Done:  E(RM062X) =  -836.999234958     A.U. after   11 cycles
 SCF Done:  E(RM062X) =  -836.999992355     A.U. after   10 cycles
 SCF Done:  E(RM062X) =  -837.000036671     A.U. after    9 cycles
 SCF Done:  E(RM062X) =  -837.000039570     A.U. after    8 cycles
 Optimization completed.
    -- Stationary point found.
 Normal termination of Gaussian 09 at Fri Mar 14 15:53:18 2025.

 ---------------------------------------------------------------------
 #N Geom=AllCheck Guess=TCheck SCRF=Check GenChk RM062X/6-31+G(d) Freq
 ---------------------------------------------------------------------

 Structure from the checkpoint file:  "/srv/scratch/z5358697/gauss/Gau-817642.chk"
 -------------------------------
 2-chloro-1,1,1-trifluoro-ethane
 -------------------------------
 Charge =  0 Multiplicity = 1

                         Standard orientation:
 ---------------------------------------------------------------------
 Center     Atomic      Atomic             Coordinates (Angstroms)
 Number     Number       Type             X           Y           Z
 ---------------------------------------------------------------------
      1          6           0       -0.451779    0.885906   -0.000157
      2          6           0        0.777224   -0.000031   -0.000044
      3          9           0        0.837565   -0.785333   -1.080530
      4          9           0        0.837951   -0.784094    1.081395
      5          9           0        1.873386    0.779787   -0.000664
      6         17           0       -1.943218   -0.072094   -0.000014
      7          1           0       -0.428992    1.508594    0.894284
      8          1           0       -0.429083    1.508512   -0.894646
 ---------------------------------------------------------------------

 SCF Done:  E(RM062X) =  -837.000039570     A.U. after    1 cycles

 The electronic state is 1-A.
 Alpha  occ. eigenvalues -- -102.68712 -25.31772 -25.31544 -25.31542 -10.82953
 Alpha  occ. eigenvalues --  -10.64940  -9.83425  -7.55866  -7.55137  -7.55118
 Alpha  occ. eigenvalues --   -1.48453  -1.39103  -1.39065  -0.99991  -0.87446
 Alpha  occ. eigenvalues --   -0.78328  -0.71041  -0.70848  -0.66600  -0.59148
 Alpha  occ. eigenvalues --   -0.58751  -0.56650  -0.55121  -0.53072  -0.52554
 Alpha  occ. eigenvalues --   -0.51044  -0.49300  -0.39298  -0.38937
 Alpha virt. eigenvalues --    0.01268   0.02067   0.04406   0.04732   0.06861
 Alpha virt. eigenvalues --    0.07200   0.07365   0.09074   0.09782   0.10563
 Alpha virt. eigenvalues --    0.12119   0.13454   0.17394   0.17980   0.21853

 Mulliken charges:
               1
     1  C   -0.674272
     2  C    0.901296
     3  F   -0.284480
     4  F   -0.284539
     5  F   -0.303180
     6  Cl   0.071198
     7  H    0.286990
     8  H    0.286987
 Sum of Mulliken charges =   0.00000

 Dipole moment (field-independent basis, Debye):
    X=             -0.4384    Y=              2.0474    Z=             -0.0007  Tot=              2.0938
 Quadrupole moment (field-independent basis, Debye-Ang):
   XX=            -43.4609   YY=            -38.1393   ZZ=            -40.1591
   XY=             -0.5633   XZ=             -0.0001   YZ=             -0.0001

  Exact polarizability:  43.739   4.319  34.905   0.003   0.000  32.764
 Approx polarizability:  46.260   6.638  40.442  -0.001   0.000  38.139

                      1                      2                      3
                      A                      A                      A
 Frequencies --    105.8268               186.6325               358.9348
 Red. masses --      5.7239                18.4043                 3.4060
 Frc consts  --      0.0378                 0.3777                 0.2585
 IR Inten    --      3.3563                 1.6540                 1.4068

                      4                      5                      6
                      A                      A                      A
 Frequencies --    362.3801               536.6528               541.1854
 Red. masses --     17.8230                 7.6300                13.0427
 Frc consts  --      1.3790                 1.2947                 2.2507
 IR Inten    --      0.5098                 2.0626                 6.6892

                      7                      8                      9
                      A                      A                      A
 Frequencies --    645.4683               821.6487               886.0242
 Red. masses --      9.3075                 7.4293                 5.8764
 Frc consts  --      2.2847                 2.9551                 2.7180
 IR Inten    --     28.7926                26.9376                21.8505

                     10                     11                     12
                      A                      A                      A
 Frequencies --    935.8462              1159.6194              1213.6788
 Red. masses --      1.7786                 1.4040                 4.2806
 Frc consts  --      0.9178                 1.1124                 3.7151
 IR Inten    --      8.7994               100.9259               280.0592

                     13                     14                     15
                      A                      A                      A
 Frequencies --   1319.3206              1345.8536              1403.0861
 Red. masses --      3.0454                 2.6866                 2.2381
 Frc consts  --      3.1232                 2.8672                 2.5960
 IR Inten    --    133.1754               181.0043                73.5747

                     16                     17                     18
                      A                      A                      A
 Frequencies --   1496.4514              3162.9913              3230.5667
 Red. masses --      1.1354                 1.0577                 1.1107
 Frc consts  --      1.4980                 6.2348                 6.8294
 IR Inten    --     23.2139                 5.6621                 0.1646

 - Thermochemistry -
 -------------------
 Temperature   298.150 Kelvin.  Pressure   1.00000 Atm.
 Atom     1 has atomic number  6 and mass  12.00000

 Molecular mass:   117.97971 amu.
 Principal axes and moments of inertia in atomic units:
                           1         2         3
     Eigenvalues --   339.277901005.009151015.66921
           X            0.99996  -0.00884   0.00000
           Y            0.00884   0.99996  -0.00021
           Z            0.00000   0.00021   1.00000
 This molecule is an asymmetric top.
 Rotational symmetry number  1.
 Rotational temperatures (Kelvin)      0.25529     0.08618     0.08528
 Rotational constants (GHZ):           5.31936     1.79575     1.77690
 Zero-point vibrational energy     117904.9 (Joules/Mol)
                                   28.17996 (Kcal/Mol)
 Warning -- explicit consideration of   6 degrees of freedom as
           vibrations may cause significant error
 Vibrational temperatures:    152.26   268.52   516.43   521.38   772.12
          (Kelvin)            778.64   928.68  1182.17  1274.79  1346.47
                             1668.43  1746.21  1898.21  1936.38  2018.73
                             2153.06  4550.83  4648.06

 Zero-point correction=                           0.044908 (Hartree/Particle)
 Thermal correction to Energy=                    0.050519
 Thermal correction to Enthalpy=                  0.051463
 Thermal correction to Gibbs Free Energy=         0.014626
 Sum of electronic and zero-point Energies=           -836.955132
 Sum of electronic and thermal Energies=              -836.949520
 Sum of electronic and thermal Enthalpies=            -836.948576
 Sum of electronic and thermal Free Energies=         -836.985414

                     E (Thermal)             CV                S
                      KCal/Mol        Cal/Mol-Kelvin    Cal/Mol-Kelvin
 Total                   31.701             18.600             77.532
 Electronic               0.000              0.000              0.000
 Translational            0.889              2.981             40.211
 Rotational               0.889              2.981             27.340
 Vibrational             29.924             12.638              9.981
 Vibration     1          0.605              1.945              3.344
 Vibration     2          0.632              1.858              2.261
 Vibration     3          0.734              1.557              1.127
 Vibration     4          0.736              1.550              1.112
 Vibration     5          0.892              1.169              0.573
 Vibration     6          0.896              1.159              0.563

 Optimization completed.
    -- Stationary point found.
 Normal termination of Gaussian 09 at Fri Mar 14 15:54:37 2025.
