 Gaussian 09, Revision D.01,
 Gaussian 09:  ES64L-G09RevD.01 24-Apr-2013

 ---------------------------------
 #m062X/6-31+G(d) OPT Freq=noraman
 ---------------------------------

 -----------------------
 chloro(difluoro)methane
 -----------------------
 Symbolic Z-matrix:
 Charge =  0 Multiplicity = 1

 SCF Done:  E(RM062X) =  -698.474236075     A.U. after   11 cycles
 SCF Done:  E(RM062X) =  -698.474591971     A.U. after   10 cycles
 SCF Done:  E(RM062X) =  -698.474636924     A.U. after    9 cycles
 SCF Done:  E(RM062X) =  -698.474644087     A.U. after    8 cycles
 Optimization completed.
    -- Stationary point found.
 Normal termination of Gaussian 09 at Fri Mar 14 14:01:13 2025.

 ---------------------------------------------------------------------
 #N Geom=AllCheck Guess=TCheck SCRF=Check GenChk RM062X/6-31+G(d) Freq
 ---------------------------------------------------------------------

 Structure from the checkpoint file:  "/srv/scratch/z5358697/gauss/Gau-746126.chk"
 -----------------------
 chloro(difluoro)methane
 -----------------------
 Charge =  0 Multiplicity = 1

                         Standard orientation:
 ---------------------------------------------------------------------
 Center     Atomic      Atomic             Coordinates (Angstroms)
 Number     Number       Type             X           Y           Z
 ---------------------------------------------------------------------
      1          6           0        0.439219    0.000001    0.368905
      2          9           0        1.028196   -1.084278   -0.155654
      3          9           0        1.028200    1.084275   -0.155655
      4         17           0       -1.276405    0.000001   -0.050768
      5          1           0        0.556010   -0.000001    1.451408
 ---------------------------------------------------------------------

 SCF Done:  E(RM062X) =  -698.474644087     A.U. after    1 cycles

 The electronic state is 1-A.
 Alpha  occ. eigenvalues -- -102.69257 -25.31389 -25.31389 -10.79299  -9.84103
 Alpha  occ. eigenvalues --   -7.56508  -7.55814  -7.55805  -1.45013  -1.38475
 Alpha  occ. eigenvalues --   -0.98806  -0.81025  -0.69314  -0.68051  -0.64583
 Alpha  occ. eigenvalues --   -0.56355  -0.53951  -0.53559  -0.46329  -0.41132
 Alpha  occ. eigenvalues --   -0.40845
 Alpha virt. eigenvalues --    0.01657   0.02991   0.04678   0.04963   0.05931
 Alpha virt. eigenvalues --    0.09922   0.10385   0.11521   0.17151   0.18893
 Alpha virt. eigenvalues --    0.21505   0.22724   0.23758   0.28874   0.30033

 Mulliken charges:
               1
     1  C    0.197129
     2  F   -0.233959
     3  F   -0.233958
     4  Cl   0.031178
     5  H    0.239611
 Sum of Mulliken charges =   0.00000

 Dipole moment (field-independent basis, Debye):
    X=             -0.0338    Y=              0.0000    Z=              1.6195  Tot=              1.6198
 Quadrupole moment (field-independent basis, Debye-Ang):
   XX=            -29.2843   YY=            -30.5733   ZZ=            -26.6660
   XY=              0.0000   XZ=              1.4514   YZ=              0.0000

  Exact polarizability:  32.825   0.000  22.346   1.832   0.000  21.946
 Approx polarizability:  36.633   0.000  24.904   2.164   0.000  24.031

                      1                      2                      3
                      A                      A                      A
 Frequencies --    369.7081               417.3839               604.0264
 Red. masses --     16.0573                19.5522                14.1861
 Frc consts  --      1.2931                 2.0069                 3.0495
 IR Inten    --      0.8628                 0.3346                 8.6519

                      4                      5                      6
                      A                      A                      A
 Frequencies --    822.4132              1161.3379              1194.8109
 Red. masses --      5.3930                 9.8869                 5.3155
 Frc consts  --      2.1491                 7.8565                 4.4709
 IR Inten    --    161.5907               249.4848               239.8049

                      7                      8                      9
                      A                      A                      A
 Frequencies --   1358.9079              1389.8435              3231.8971
 Red. masses --      1.1618                 1.2310                 1.0895
 Frc consts  --      1.2640                 1.4010                 6.7047
 IR Inten    --     90.9783                34.5690                13.7045

 - Thermochemistry -
 -------------------
 Temperature   298.150 Kelvin.  Pressure   1.00000 Atm.
 Atom     1 has atomic number  6 and mass  12.00000

 Molecular mass:    85.97348 amu.
 Principal axes and moments of inertia in atomic units:
                           1         2         3
     Eigenvalues --   176.37027 373.16355 515.84042
           X            0.99994   0.00000   0.01107
           Y            0.00000   1.00000   0.00000
           Z           -0.01107   0.00000   0.99994
 This molecule is an asymmetric top.
 Rotational symmetry number  1.
 Rotational temperatures (Kelvin)      0.49109     0.23211     0.16791
 Rotational constants (GHZ):          10.23268     4.83633     3.49864
 Zero-point vibrational energy      63105.0 (Joules/Mol)
                                   15.08245 (Kcal/Mol)
 Warning -- explicit consideration of   3 degrees of freedom as
           vibrations may cause significant error
 Vibrational temperatures:    531.93   600.52   869.06  1183.27  1670.90
          (Kelvin)           1719.06  1955.16  1999.67  4649.97

 Zero-point correction=                           0.024035 (Hartree/Particle)
 Thermal correction to Energy=                    0.027784
 Thermal correction to Enthalpy=                  0.028728
 Thermal correction to Gibbs Free Energy=        -0.003127
 Sum of electronic and zero-point Energies=           -698.450609
 Sum of electronic and thermal Energies=              -698.446860
 Sum of electronic and thermal Enthalpies=            -698.445916
 Sum of electronic and thermal Free Energies=         -698.477771

                     E (Thermal)             CV                S
                      KCal/Mol        Cal/Mol-Kelvin    Cal/Mol-Kelvin
 Total                   17.435             11.237             67.045
 Electronic               0.000              0.000              0.000
 Translational            0.889              2.981             39.268
 Rotational               0.889              2.981             25.032
 Vibrational             15.657              5.276              2.745
 Vibration     1          0.742              1.534              1.081
 Vibration     2          0.780              1.432              0.901
 Vibration     3          0.962              1.023              0.443

 Optimization completed.
    -- Stationary point found.
 Normal termination of Gaussian 09 at Fri Mar 14 14:01:34 2025.
