 Gaussian 09, Revision D.01,
 Gaussian 09:  ES64L-G09RevD.01 24-Apr-2013

 ---------------------------------
 #m062X/6-31+G(d) OPT Freq=noraman
 ---------------------------------

 ---------------
 4-chloroaniline
 ---------------
 Symbolic Z-matrix:
 Charge =  0 Multiplicity = 1

 SCF Done:  E(RM062X) =  -747.046423317     A.U. after   15 cycles
 SCF Done:  E(RM062X) =  -747.048089990     A.U. after   12 cycles
 SCF Done:  E(RM062X) =  -747.048378089     A.U. after   12 cycles
 SCF Done:  E(RM062X) =  -747.048624203     A.U. after   12 cycles
 SCF Done:  E(RM062X) =  -746.964885822     A.U. after   15 cycles
 SCF Done:  E(RM062X) =  -747.048652077     A.U. after   11 cycles
 SCF Done:  E(RM062X) =  -747.049037171     A.U. after   13 cycles
 SCF Done:  E(RM062X) =  -747.049290458     A.U. after   12 cycles
 SCF Done:  E(RM062X) =  -747.049621850     A.U. after   11 cycles
 SCF Done:  E(RM062X) =  -747.049712384     A.U. after   12 cycles
 SCF Done:  E(RM062X) =  -747.049717171     A.U. after   12 cycles
 SCF Done:  E(RM062X) =  -747.049728651     A.U. after   11 cycles
 Optimization completed.
    -- Stationary point found.
 Normal termination of Gaussian 09 at Fri Mar 21 14:22:18 2025.

 ---------------------------------------------------------------------
 #N Geom=AllCheck Guess=TCheck SCRF=Check GenChk RM062X/6-31+G(d) Freq
 ---------------------------------------------------------------------

 Structure from the checkpoint file:  "/srv/scratch/z5358697/gauss/Gau-2753792.chk"
 ---------------
 4-chloroaniline
 ---------------
 Charge =  0 Multiplicity = 1

                         Standard orientation:
 ---------------------------------------------------------------------
 Center     Atomic      Atomic             Coordinates (Angstroms)
 Number     Number       Type             X           Y           Z
 ---------------------------------------------------------------------
      1          6           0       -1.104416   -1.204379   -0.006621
      2          6           0        0.286088   -1.206805   -0.002684
      3          6           0        0.977055   -0.000001   -0.000013
      4          6           0        0.286089    1.206805   -0.002684
      5          6           0       -1.104414    1.204382   -0.006628
      6          6           0       -1.819717    0.000002   -0.006245
      7          7           0       -3.215235    0.000006   -0.070784
      8         17           0        2.724788   -0.000001    0.006473
      9          1           0       -1.642663   -2.148924   -0.016740
     10          1           0        0.833406   -2.144074   -0.001656
     11          1           0        0.833407    2.144073   -0.001663
     12          1           0       -1.642663    2.148926   -0.016760
     13          1           0       -3.660180    0.836269    0.285837
     14          1           0       -3.660173   -0.836323    0.285691
 ---------------------------------------------------------------------

 SCF Done:  E(RM062X) =  -747.049728651     A.U. after    1 cycles

 The electronic state is 1-A.
 Alpha  occ. eigenvalues -- -102.66457 -14.78089 -10.60793 -10.60597 -10.56864
 Alpha  occ. eigenvalues --  -10.56863 -10.56257 -10.56257  -9.81120  -7.53526
 Alpha  occ. eigenvalues --   -7.52857  -7.52855  -1.04129  -0.98740  -0.92298
 Alpha  occ. eigenvalues --   -0.85845  -0.81246  -0.71609  -0.68317  -0.60932
 Alpha  occ. eigenvalues --   -0.59875  -0.55110  -0.51674  -0.51279  -0.50086
 Alpha  occ. eigenvalues --   -0.47692  -0.44130  -0.42549  -0.42206  -0.37218
 Alpha  occ. eigenvalues --   -0.36241  -0.31938  -0.26303
 Alpha virt. eigenvalues --    0.00834   0.00841   0.02345   0.02698   0.02709
 Alpha virt. eigenvalues --    0.03758   0.05441   0.06698   0.07741   0.07991
 Alpha virt. eigenvalues --    0.09148   0.09213   0.09276   0.09771   0.12758

 Mulliken charges:
               1
     1  C    0.077554
     2  C   -0.671810
     3  C    0.185561
     4  C   -0.671809
     5  C    0.077568
     6  C    0.068139
     7  N   -0.844195
     8  Cl   0.149532
     9  H    0.200295
    10  H    0.226863
    11  H    0.226863
    12  H    0.200298
    13  H    0.387570
    14  H    0.387572
 Sum of Mulliken charges =   0.00000

 Dipole moment (field-independent basis, Debye):
    X=             -3.1882    Y=             -0.0001    Z=              1.0763  Tot=              3.3650
 Quadrupole moment (field-independent basis, Debye-Ang):
   XX=            -49.6233   YY=            -47.0430   ZZ=            -59.0448
   XY=              0.0003   XZ=             -4.5233   YZ=              0.0002

  Exact polarizability: 126.025   0.042  86.965   0.260  -0.030  50.129
 Approx polarizability: 145.423   0.000 115.208   0.659   0.000  62.806

                      1                      2                      3
                      A                      A                      A
 Frequencies --    126.3592               258.3951               277.8788
 Red. masses --      6.0206                 6.2228                 1.0418
 Frc consts  --      0.0566                 0.2448                 0.0474
 IR Inten    --      1.4774                 0.0109                22.0480

                      4                      5                      6
                      A                      A                      A
 Frequencies --    322.7246               386.3564               405.3051
 Red. masses --      5.2602                11.6191                 3.0520
 Frc consts  --      0.3228                 1.0219                 0.2954
 IR Inten    --      3.6711                 1.9164                 0.2667

                      7                      8                      9
                      A                      A                      A
 Frequencies --    422.8543               506.4523               615.6793
 Red. masses --      2.9627                 2.2619                 1.6480
 Frc consts  --      0.3121                 0.3418                 0.3681
 IR Inten    --      0.3818                63.4604               325.6893

                     10                     11                     12
                      A                      A                      A
 Frequencies --    647.1246               666.7530               709.3468
 Red. masses --      6.9079                 3.6956                 3.4302
 Frc consts  --      1.7044                 0.9680                 1.0169
 IR Inten    --      0.0002                10.9254                 3.6062

                     13                     14                     15
                      A                      A                      A
 Frequencies --    828.9803               840.2205               853.9885
 Red. masses --      1.2576                 1.9278                 3.8738
 Frc consts  --      0.5092                 0.8018                 1.6645
 IR Inten    --      0.0663                60.9068                22.4136

                     16                     17                     18
                      A                      A                      A
 Frequencies --    956.7452               974.5059              1027.9576
 Red. masses --      1.3172                 1.3437                 3.4172
 Frc consts  --      0.7104                 0.7518                 2.1275
 IR Inten    --      0.1961                 0.0000                13.4891

                     19                     20                     21
                      A                      A                      A
 Frequencies --   1097.5908              1139.3544              1152.7409
 Red. masses --      1.4019                 2.7283                 1.1787
 Frc consts  --      0.9951                 2.0867                 0.9228
 IR Inten    --      1.4496                38.3181                 9.2721

                     22                     23                     24
                      A                      A                      A
 Frequencies --   1206.1985              1325.4829              1328.4210
 Red. masses --      1.1161                 3.3435                 1.5671
 Frc consts  --      0.9567                 3.4610                 1.6294
 IR Inten    --     16.0377                65.2535                 2.0181

                     25                     26                     27
                      A                      A                      A
 Frequencies --   1362.1664              1487.2702              1557.7024
 Red. masses --      3.4852                 3.1312                 2.7273
 Frc consts  --      3.8102                 4.0807                 3.8989
 IR Inten    --      4.4590                 1.1149               175.2560

                     28                     29                     30
                      A                      A                      A
 Frequencies --   1676.5879              1686.3862              1707.4025
 Red. masses --      7.0883                 1.6563                 2.3375
 Frc consts  --     11.7393                 2.7752                 4.0148
 IR Inten    --      1.2218                15.8187               119.1145

                     31                     32                     33
                      A                      A                      A
 Frequencies --   3200.5301              3200.6260              3231.5151
 Red. masses --      1.0896                 1.0904                 1.0945
 Frc consts  --      6.5758                 6.5815                 6.7342
 IR Inten    --     13.6878                 6.8531                 2.7446

                     34                     35                     36
                      A                      A                      A
 Frequencies --   3232.4562              3582.4461              3682.2511
 Red. masses --      1.0949                 1.0489                 1.0984
 Frc consts  --      6.7407                 7.9310                 8.7750
 IR Inten    --      0.0146                26.8488                21.3616

 - Thermochemistry -
 -------------------
 Temperature   298.150 Kelvin.  Pressure   1.00000 Atm.
 Atom     1 has atomic number  6 and mass  12.00000

 Molecular mass:   127.01888 amu.
 Principal axes and moments of inertia in atomic units:
                           1         2         3
     Eigenvalues --   321.315781856.428522176.11643
           X            0.99999   0.00000  -0.00402
           Y            0.00000   1.00000   0.00000
           Z            0.00402   0.00000   0.99999
 This molecule is an asymmetric top.
 Rotational symmetry number  1.
 Rotational temperatures (Kelvin)      0.26956     0.04666     0.03980
 Rotational constants (GHZ):           5.61672     0.97216     0.82934
 Zero-point vibrational energy     285218.2 (Joules/Mol)
                                   68.16878 (Kcal/Mol)
 Warning -- explicit consideration of   9 degrees of freedom as
           vibrations may cause significant error
 Vibrational temperatures:    181.80   371.77   399.81   464.33   555.88
          (Kelvin)            583.14   608.39   728.67   885.82   931.07
                              959.31  1020.59  1192.72  1208.89  1228.70
                             1376.54  1402.09  1479.00  1579.19  1639.27
                             1658.53  1735.45  1907.07  1911.30  1959.85
                             2139.85  2241.18  2412.23  2426.33  2456.57
                             4604.84  4604.98  4649.42  4650.78  5154.33
                             5297.93

 Zero-point correction=                           0.108634 (Hartree/Particle)
 Thermal correction to Energy=                    0.115572
 Thermal correction to Enthalpy=                  0.116516
 Thermal correction to Gibbs Free Energy=         0.077239
 Sum of electronic and zero-point Energies=           -746.941095
 Sum of electronic and thermal Energies=              -746.934157
 Sum of electronic and thermal Enthalpies=            -746.933213
 Sum of electronic and thermal Free Energies=         -746.972490

                     E (Thermal)             CV                S
                      KCal/Mol        Cal/Mol-Kelvin    Cal/Mol-Kelvin
 Total                   72.522             26.785             82.666
 Electronic               0.000              0.000              0.000
 Translational            0.889              2.981             40.431
 Rotational               0.889              2.981             28.653
 Vibrational             70.745             20.823             13.582
 Vibration     1          0.611              1.927              3.001
 Vibration     2          0.667              1.749              1.673
 Vibration     3          0.679              1.714              1.547
 Vibration     4          0.708              1.630              1.296
 Vibration     5          0.755              1.499              1.014
 Vibration     6          0.770              1.459              0.943
 Vibration     7          0.785              1.421              0.882
 Vibration     8          0.862              1.236              0.642
 Vibration     9          0.975              0.999              0.423

 Optimization completed.
    -- Stationary point found.
 Normal termination of Gaussian 09 at Fri Mar 21 14:27:49 2025.
