 Gaussian 09, Revision D.01,
 Gaussian 09:  ES64L-G09RevD.01 24-Apr-2013

 ---------------------------------
 #m062X/6-31+G(d) OPT Freq=noraman
 ---------------------------------

 -----------------------
 pyridine-3-carbonitrile
 -----------------------
 Symbolic Z-matrix:
 Charge =  0 Multiplicity = 1

 SCF Done:  E(RM062X) =  -340.393781875     A.U. after   14 cycles
 SCF Done:  E(RM062X) =  -340.395328291     A.U. after   13 cycles
 SCF Done:  E(RM062X) =  -340.395414181     A.U. after   11 cycles
 SCF Done:  E(RM062X) =  -340.395415937     A.U. after   10 cycles
 SCF Done:  E(RM062X) =  -340.395416221     A.U. after    9 cycles
 Optimization completed.
    -- Stationary point found.

 1\1\GINC-KATANA2\FOpt\RM062X\6-31+G(d)\C6H4N2\Z5358697\17-Mar-2025\0\\
 #m062X/6-31+G(d) OPT Freq=noraman\\pyridine-3-carbonitrile\\0,1\C,1.65
 28303061,-0.6216824828,2.8987066841\C,1.4098305149,-0.0557624674,1.654
 686648\C,0.2382492031,-0.4187105012,0.9849220962\C,-0.6345247337,-1.33
 10761229,1.5924411357\N,-0.4021899199,-1.8733876812,2.7839859087\C,0.7
 199316648,-1.5204793156,3.4163985625\C,-0.0781922543,0.1279503788,-0.3
 071218052\N,-0.3343291958,0.5669245932,-1.3468833729\H,2.5467106292,-0
 .374659348,3.4612131907\H,2.101534753,0.6493423958,1.2041774712\H,-1.5

 Normal termination of Gaussian 09 at Mon Mar 17 14:53:57 2025.

 ---------------------------------------------------------------------
 #N Geom=AllCheck Guess=TCheck SCRF=Check GenChk RM062X/6-31+G(d) Freq
 ---------------------------------------------------------------------

 Structure from the checkpoint file:  "/srv/scratch/z5358697/gauss/Gau-4005044.chk"
 -----------------------
 pyridine-3-carbonitrile
 -----------------------
 Charge =  0 Multiplicity = 1

                         Standard orientation:
 ---------------------------------------------------------------------
 Center     Atomic      Atomic             Coordinates (Angstroms)
 Number     Number       Type             X           Y           Z
 ---------------------------------------------------------------------
      1          6           0       -1.515090    1.156460    0.000003
      2          6           0       -0.128559    1.223019   -0.000002
      3          6           0        0.587172    0.022749   -0.000002
      4          6           0       -0.119244   -1.187293    0.000000
      5          7           0       -1.447301   -1.251535    0.000003
      6          6           0       -2.122641   -0.099336   -0.000009
      7          6           0        2.025332    0.015786    0.000001
      8          7           0        3.182636    0.008423    0.000000
      9          1           0       -2.118870    2.057518    0.000015
     10          1           0        0.396601    2.173173    0.000001
     11          1           0        0.419566   -2.131744    0.000004
     12          1           0       -3.206466   -0.185474    0.000015
 ---------------------------------------------------------------------

 SCF Done:  E(RM062X) =  -340.395416221     A.U. after    1 cycles

 The electronic state is 1-A.
 Alpha  occ. eigenvalues --  -14.79531 -14.78672 -10.62566 -10.62339 -10.62057
 Alpha  occ. eigenvalues --  -10.61201 -10.60847 -10.59517  -1.09090  -1.03210
 Alpha  occ. eigenvalues --   -0.94933  -0.90379  -0.77377  -0.75283  -0.66167
 Alpha  occ. eigenvalues --   -0.61096  -0.59233  -0.54100  -0.51464  -0.50804
 Alpha  occ. eigenvalues --   -0.47513  -0.45282  -0.44513  -0.42091  -0.37486
 Alpha  occ. eigenvalues --   -0.35371  -0.34174
 Alpha virt. eigenvalues --   -0.04253  -0.02325   0.00327   0.02285   0.02624
 Alpha virt. eigenvalues --    0.03924   0.04608   0.04941   0.05615   0.06252
 Alpha virt. eigenvalues --    0.07528   0.08208   0.08209   0.08301   0.10096

 Mulliken charges:
               1
     1  C    0.039332
     2  C    0.003691
     3  C    0.753115
     4  C   -0.411858
     5  N   -0.131943
     6  C   -0.276374
     7  C   -0.454514
     8  N   -0.454732
     9  H    0.231693
    10  H    0.248043
    11  H    0.234890
    12  H    0.218656
 Sum of Mulliken charges =   0.00000

 Dipole moment (field-independent basis, Debye):
    X=             -3.3766    Y=              2.0813    Z=              0.0000  Tot=              3.9665
 Quadrupole moment (field-independent basis, Debye-Ang):
   XX=            -56.6101   YY=            -42.8561   ZZ=            -47.6681
   XY=             -4.7478   XZ=             -0.0001   YZ=              0.0000

  Exact polarizability: 111.105  -1.522  74.061   0.000   0.000  40.413
 Approx polarizability: 140.485  -0.548  98.653   0.000   0.000  50.757

                      1                      2                      3
                      A                      A                      A
 Frequencies --    147.6413               159.7808               369.0981
 Red. masses --      5.6385                 7.1517                 3.7606
 Frc consts  --      0.0724                 0.1076                 0.3019
 IR Inten    --      3.2909                 6.4790                 0.6707

                      4                      5                      6
                      A                      A                      A
 Frequencies --    410.4673               476.4836               559.0859
 Red. masses --      3.7269                 8.7211                 8.2525
 Frc consts  --      0.3700                 1.1666                 1.5198
 IR Inten    --      4.0376                 0.3167                 0.4834

                      7                      8                      9
                      A                      A                      A
 Frequencies --    575.2828               637.3310               717.5782
 Red. masses --      5.9175                 8.1370                 2.2524
 Frc consts  --      1.1539                 1.9473                 0.6833
 IR Inten    --      3.7986                 3.9947                30.1053

                     10                     11                     12
                      A                      A                      A
 Frequencies --    799.4917               833.0346               963.8912
 Red. masses --      7.3881                 1.5345                 1.3560
 Frc consts  --      2.7824                 0.6274                 0.7423
 IR Inten    --      0.3938                29.2921                 0.5013

                     13                     14                     15
                      A                      A                      A
 Frequencies --    994.4638              1030.4420              1043.8431
 Red. masses --      1.3862                 1.3995                 4.6907
 Frc consts  --      0.8077                 0.8755                 3.0113
 IR Inten    --      1.2093                 0.0478                 9.4051

                     16                     17                     18
                      A                      A                      A
 Frequencies --   1083.8368              1156.1084              1236.0007
 Red. masses --      2.4360                 1.3366                 2.2445
 Frc consts  --      1.6860                 1.0525                 2.0202
 IR Inten    --      0.9906                 4.1293                 5.3097

                     19                     20                     21
                      A                      A                      A
 Frequencies --   1249.7319              1303.2031              1371.3797
 Red. masses --      1.8667                 5.5467                 1.2682
 Frc consts  --      1.7177                 5.5502                 1.4052
 IR Inten    --      3.9714                 0.6228                 1.0493

                     22                     23                     24
                      A                      A                      A
 Frequencies --   1477.8825              1534.8212              1658.8118
 Red. masses --      2.4444                 2.3801                 5.7997
 Frc consts  --      3.1456                 3.3034                 9.4027
 IR Inten    --     26.9275                13.2664                15.8050

                     25                     26                     27
                      A                      A                      A
 Frequencies --   1685.8187              2406.3945              3216.3114
 Red. masses --      6.4551                12.6846                 1.0899
 Frc consts  --     10.8088                43.2773                 6.6431
 IR Inten    --     24.1896                26.1468                12.6061

                     28                     29                     30
                      A                      A                      A
 Frequencies --   3219.0719              3229.9463              3259.7290
 Red. masses --      1.0938                 1.0930                 1.0966
 Frc consts  --      6.6782                 6.7186                 6.8655
 IR Inten    --      0.5227                 0.7634                 3.8410

 - Thermochemistry -
 -------------------
 Temperature   298.150 Kelvin.  Pressure   1.00000 Atm.
 Atom     1 has atomic number  6 and mass  12.00000

 Molecular mass:   104.03745 amu.
 Principal axes and moments of inertia in atomic units:
                           1         2         3
     Eigenvalues --   308.964671148.481301457.44597
           X            0.99987  -0.01640   0.00000
           Y            0.01640   0.99987   0.00000
           Z            0.00000   0.00000   1.00000
 This molecule is an asymmetric top.
 Rotational symmetry number  1.
 Rotational temperatures (Kelvin)      0.28034     0.07542     0.05943
 Rotational constants (GHZ):           5.84125     1.57142     1.23829
 Zero-point vibrational energy     232117.2 (Joules/Mol)
                                   55.47734 (Kcal/Mol)
 Warning -- explicit consideration of   7 degrees of freedom as
           vibrations may cause significant error
 Vibrational temperatures:    212.42   229.89   531.05   590.57   685.55
          (Kelvin)            804.40   827.70   916.98  1032.43  1150.29
                             1198.55  1386.82  1430.81  1482.57  1501.86
                             1559.40  1663.38  1778.33  1798.08  1875.02
                             1973.11  2126.34  2208.26  2386.66  2425.51
                             3462.26  4627.55  4631.52  4647.17  4690.02

 Zero-point correction=                           0.088409 (Hartree/Particle)
 Thermal correction to Energy=                    0.094402
 Thermal correction to Enthalpy=                  0.095346
 Thermal correction to Gibbs Free Energy=         0.058155
 Sum of electronic and zero-point Energies=           -340.307007
 Sum of electronic and thermal Energies=              -340.301014
 Sum of electronic and thermal Enthalpies=            -340.300070
 Sum of electronic and thermal Free Energies=         -340.337261

                     E (Thermal)             CV                S
                      KCal/Mol        Cal/Mol-Kelvin    Cal/Mol-Kelvin
 Total                   59.238             22.107             78.275
 Electronic               0.000              0.000              0.000
 Translational            0.889              2.981             39.836
 Rotational               0.889              2.981             27.738
 Vibrational             57.461             16.145             10.700
 Vibration     1          0.617              1.905              2.702
 Vibration     2          0.622              1.892              2.552
 Vibration     3          0.741              1.536              1.084
 Vibration     4          0.775              1.448              0.925
 Vibration     5          0.833              1.302              0.720
 Vibration     6          0.915              1.120              0.526
 Vibration     7          0.932              1.085              0.494

 Optimization completed.
    -- Stationary point found.

 1\1\GINC-KATANA2\Freq\RM062X\6-31+G(d)\C6H4N2\Z5358697\17-Mar-2025\0\\
 #N Geom=AllCheck Guess=TCheck SCRF=Check GenChk RM062X/6-31+G(d) Freq\
 \pyridine-3-carbonitrile\\0,1\C,1.6528303061,-0.6216824828,2.898706684
 1\C,1.4098305149,-0.0557624674,1.654686648\C,0.2382492031,-0.418710501
 2,0.9849220962\C,-0.6345247337,-1.3310761229,1.5924411357\N,-0.4021899
 199,-1.8733876812,2.7839859087\C,0.7199316648,-1.5204793156,3.41639856
 25\C,-0.0781922543,0.1279503788,-0.3071218052\N,-0.3343291958,0.566924
 5932,-1.3468833729\H,2.5467106292,-0.374659348,3.4612131907\H,2.101534

 Normal termination of Gaussian 09 at Mon Mar 17 14:57:47 2025.
