 Gaussian 09, Revision D.01,
 Gaussian 09:  ES64L-G09RevD.01 24-Apr-2013

 ---------------------------------
 #m062X/6-31+G(d) OPT Freq=noraman
 ---------------------------------

 ---------------
 tetrahydrofuran
 ---------------
 Symbolic Z-matrix:
 Charge =  0 Multiplicity = 1

 SCF Done:  E(RM062X) =  -232.343145209     A.U. after   11 cycles
 SCF Done:  E(RM062X) =  -232.344128777     A.U. after   10 cycles
 SCF Done:  E(RM062X) =  -232.344174958     A.U. after    9 cycles
 SCF Done:  E(RM062X) =  -232.344179658     A.U. after    8 cycles
 Optimization completed.
    -- Stationary point found.

 1\1\GINC-KATANA2\FOpt\RM062X\6-31+G(d)\C4H8O1\Z5358697\17-Mar-2025\0\\
 #m062X/6-31+G(d) OPT Freq=noraman\\tetrahydrofuran\\0,1\C,-0.535488428
 2,-1.0376959704,-0.5113281987\C,-0.5519495008,0.3816694856,-1.08387641
 82\C,0.6138439875,1.0206718761,-0.3289099608\O,0.6475799262,0.39079560
 38,0.9500223272\C,-0.188812659,-0.7641944601,0.9523632\H,0.2558972972,
 -1.6284149677,-0.9865120522\H,-1.483117532,-1.5695882871,-0.6303842549
 \H,-0.4252835728,0.4182497635,-2.1690959771\H,-1.49240272,0.8824577035
 ,-0.8273661938\H,1.5661478873,0.8363202466,-0.845366547\H,0.4990363606

 Normal termination of Gaussian 09 at Mon Mar 17 15:15:23 2025.

 ---------------------------------------------------------------------
 #N Geom=AllCheck Guess=TCheck SCRF=Check GenChk RM062X/6-31+G(d) Freq
 ---------------------------------------------------------------------

 Structure from the checkpoint file:  "/srv/scratch/z5358697/gauss/Gau-4007898.chk"
 ---------------
 tetrahydrofuran
 ---------------
 Charge =  0 Multiplicity = 1

                         Standard orientation:
 ---------------------------------------------------------------------
 Center     Atomic      Atomic             Coordinates (Angstroms)
 Number     Number       Type             X           Y           Z
 ---------------------------------------------------------------------
      1          6           0       -0.728043    0.990742   -0.235877
      2          6           0        0.728017    0.990752    0.235895
      3          6           0        1.161578   -0.427214   -0.136623
      4          8           0        0.000025   -1.243100    0.000031
      5          6           0       -1.161572   -0.427252    0.136583
      6          1           0       -0.774105    1.130525   -1.321869
      7          1           0       -1.342678    1.760397    0.238403
      8          1           0        1.342625    1.760446   -0.238354
      9          1           0        0.774082    1.130480    1.321894
     10          1           0        1.511407   -0.471712   -1.177409
     11          1           0        1.945517   -0.827831    0.512923
     12          1           0       -1.945442   -0.827887   -0.513038
     13          1           0       -1.511488   -0.471788    1.177335
 ---------------------------------------------------------------------

 SCF Done:  E(RM062X) =  -232.344179658     A.U. after    1 cycles

 The electronic state is 1-A.
 Alpha  occ. eigenvalues --  -19.63619 -10.58900 -10.58899 -10.55097 -10.55062
 Alpha  occ. eigenvalues --   -1.15328  -0.88692  -0.83439  -0.68202  -0.67487
 Alpha  occ. eigenvalues --   -0.58090  -0.56878  -0.50024  -0.49674  -0.47241
 Alpha  occ. eigenvalues --   -0.42067  -0.41329  -0.39813  -0.38128  -0.31617
 Alpha virt. eigenvalues --    0.02559   0.03626   0.04093   0.04237   0.06428
 Alpha virt. eigenvalues --    0.07074   0.08086   0.08151   0.08203   0.11090
 Alpha virt. eigenvalues --    0.11744   0.12260   0.12747   0.14221   0.15722

 Mulliken charges:
               1
     1  C   -0.481892
     2  C   -0.481880
     3  C   -0.164984
     4  O   -0.374542
     5  C   -0.164979
     6  H    0.221304
     7  H    0.219082
     8  H    0.219080
     9  H    0.221305
    10  H    0.193086
    11  H    0.200667
    12  H    0.200665
    13  H    0.193089
 Sum of Mulliken charges =   0.00000

 Dipole moment (field-independent basis, Debye):
    X=              0.0000    Y=              2.0040    Z=             -0.0001  Tot=              2.0040
 Quadrupole moment (field-independent basis, Debye-Ang):
   XX=            -29.3871   YY=            -35.5211   ZZ=            -31.2988
   XY=              0.0001   XZ=             -0.1311   YZ=              0.0001

  Exact polarizability:  52.074   0.000  46.511  -0.551   0.000  44.161
 Approx polarizability:  55.034   0.000  51.156  -0.633   0.000  51.771

                      1                      2                      3
                      A                      A                      A
 Frequencies --     77.5019               265.3375               578.5910
 Red. masses --      2.3571                 1.5973                 1.7180
 Frc consts  --      0.0083                 0.0663                 0.3389
 IR Inten    --      6.5873                 0.0048                 0.3132

                      4                      5                      6
                      A                      A                      A
 Frequencies --    675.4437               857.9286               896.2339
 Red. masses --      3.0369                 1.5993                 1.9471
 Frc consts  --      0.8163                 0.6935                 0.9215
 IR Inten    --      3.4838                 3.7087                 2.7076

                      7                      8                      9
                      A                      A                      A
 Frequencies --    922.2204               948.8739               954.2820
 Red. masses --      1.5068                 2.9342                 2.7493
 Frc consts  --      0.7551                 1.5566                 1.4751
 IR Inten    --      5.3885                 1.9463                31.5323

                     10                     11                     12
                      A                      A                      A
 Frequencies --    977.6762              1052.8455              1162.7369
 Red. masses --      1.4722                 1.6782                 4.3315
 Frc consts  --      0.8291                 1.0961                 3.4503
 IR Inten    --      0.2455                 7.3690               107.9560

                     13                     14                     15
                      A                      A                      A
 Frequencies --   1180.6380              1205.4405              1206.2613
 Red. masses --      1.8105                 1.5512                 1.4587
 Frc consts  --      1.4869                 1.3280                 1.2506
 IR Inten    --      0.1852                 7.1897                25.0385

                     16                     17                     18
                      A                      A                      A
 Frequencies --   1273.7478              1274.4181              1323.2346
 Red. masses --      1.2461                 1.1626                 1.3925
 Frc consts  --      1.1912                 1.1125                 1.4366
 IR Inten    --     10.6654                 0.0277                 0.8407

                     19                     20                     21
                      A                      A                      A
 Frequencies --   1357.2004              1383.8458              1418.4613
 Red. masses --      1.3463                 1.3160                 1.3913
 Frc consts  --      1.4611                 1.4848                 1.6493
 IR Inten    --      1.0097                 0.0516                 5.0904

                     22                     23                     24
                      A                      A                      A
 Frequencies --   1507.7084              1518.6209              1542.8142
 Red. masses --      1.0940                 1.1085                 1.0905
 Frc consts  --      1.4653                 1.5062                 1.5293
 IR Inten    --      4.5794                 5.3244                 0.8546

                     25                     26                     27
                      A                      A                      A
 Frequencies --   1556.1312              3060.2336              3064.7663
 Red. masses --      1.1061                 1.0657                 1.0685
 Frc consts  --      1.5781                 5.8804                 5.9133
 IR Inten    --      0.0047               129.0262                 3.1154

                     28                     29                     30
                      A                      A                      A
 Frequencies --   3087.4227              3091.1688              3129.5455
 Red. masses --      1.0671                 1.0608                 1.0989
 Frc consts  --      5.9930                 5.9720                 6.3414
 IR Inten    --     15.4369                21.8455                75.2368

                     31                     32                     33
                      A                      A                      A
 Frequencies --   3130.9212              3147.6687              3156.1448
 Red. masses --      1.0975                 1.1019                 1.1068
 Frc consts  --      6.3386                 6.4324                 6.4957
 IR Inten    --      1.8973                16.1282                49.1146

 - Thermochemistry -
 -------------------
 Temperature   298.150 Kelvin.  Pressure   1.00000 Atm.
 Atom     1 has atomic number  6 and mass  12.00000

 Molecular mass:    72.05751 amu.
 Principal axes and moments of inertia in atomic units:
                           1         2         3
     Eigenvalues --   253.26850 256.81082 447.62886
           X           -0.00011   1.00000  -0.00291
           Y            1.00000   0.00011   0.00000
           Z            0.00000   0.00291   1.00000
 This molecule is an asymmetric top.
 Rotational symmetry number  1.
 Rotational temperatures (Kelvin)      0.34198     0.33727     0.19349
 Rotational constants (GHZ):           7.12580     7.02751     4.03178
 Zero-point vibrational energy     310945.7 (Joules/Mol)
                                   74.31781 (Kcal/Mol)
 Warning -- explicit consideration of   3 degrees of freedom as
           vibrations may cause significant error
 Vibrational temperatures:    111.51   381.76   832.46   971.81  1234.37
          (Kelvin)           1289.48  1326.87  1365.22  1373.00  1406.66
                             1514.81  1672.92  1698.67  1734.36  1735.54
                             1832.64  1833.60  1903.84  1952.71  1991.04
                             2040.85  2169.25  2184.95  2219.76  2238.92
                             4402.99  4409.51  4442.11  4447.50  4502.71
                             4504.69  4528.79  4540.98

 Zero-point correction=                           0.118433 (Hartree/Particle)
 Thermal correction to Energy=                    0.123277
 Thermal correction to Enthalpy=                  0.124222
 Thermal correction to Gibbs Free Energy=         0.090381
 Sum of electronic and zero-point Energies=           -232.225747
 Sum of electronic and thermal Energies=              -232.220902
 Sum of electronic and thermal Enthalpies=            -232.219958
 Sum of electronic and thermal Free Energies=         -232.253798

                     E (Thermal)             CV                S
                      KCal/Mol        Cal/Mol-Kelvin    Cal/Mol-Kelvin
 Total                   77.358             16.658             71.223
 Electronic               0.000              0.000              0.000
 Translational            0.889              2.981             38.741
 Rotational               0.889              2.981             24.880
 Vibrational             75.580             10.696              7.602
 Vibration     1          0.599              1.964              3.953
 Vibration     2          0.671              1.737              1.626
 Vibration     3          0.935              1.078              0.488

 1\1\GINC-KATANA2\Freq\RM062X\6-31+G(d)\C4H8O1\Z5358697\17-Mar-2025\0\\
 #N Geom=AllCheck Guess=TCheck SCRF=Check GenChk RM062X/6-31+G(d) Freq\
 \tetrahydrofuran\\0,1\C,-0.5354884282,-1.0376959704,-0.5113281987\C,-0
 .5519495008,0.3816694856,-1.0838764182\C,0.6138439875,1.0206718761,-0.
 3289099608\O,0.6475799262,0.3907956038,0.9500223272\C,-0.188812659,-0.
 7641944601,0.9523632\H,0.2558972972,-1.6284149677,-0.9865120522\H,-1.4
 83117532,-1.5695882871,-0.6303842549\H,-0.4252835728,0.4182497635,-2.1
 690959771\H,-1.49240272,0.8824577035,-0.8273661938\H,1.5661478873,0.83

 Normal termination of Gaussian 09 at Mon Mar 17 15:17:39 2025.
