 Gaussian 09, Revision D.01,
 Gaussian 09:  ES64L-G09RevD.01 24-Apr-2013

 ---------------------------------
 #m062X/6-31+G(d) OPT Freq=noraman
 ---------------------------------

 ------------
 cyclopentene
 ------------
 Symbolic Z-matrix:
 Charge =  0 Multiplicity = 1

 SCF Done:  E(RM062X) =  -195.228223202     A.U. after   11 cycles
 SCF Done:  E(RM062X) =  -195.229616008     A.U. after   10 cycles
 SCF Done:  E(RM062X) =  -195.229664649     A.U. after    9 cycles
 SCF Done:  E(RM062X) =  -195.229691057     A.U. after    9 cycles
 SCF Done:  E(RM062X) =  -195.229704236     A.U. after    9 cycles
 SCF Done:  E(RM062X) =  -195.229707816     A.U. after    8 cycles
 Optimization completed.
    -- Stationary point found.
 Normal termination of Gaussian 09 at Mon Mar 17 15:19:25 2025.

 ---------------------------------------------------------------------
 #N Geom=AllCheck Guess=TCheck SCRF=Check GenChk RM062X/6-31+G(d) Freq
 ---------------------------------------------------------------------

 Structure from the checkpoint file:  "/srv/scratch/z5358697/gauss/Gau-2087403.chk"
 ------------
 cyclopentene
 ------------
 Charge =  0 Multiplicity = 1

                         Standard orientation:
 ---------------------------------------------------------------------
 Center     Atomic      Atomic             Coordinates (Angstroms)
 Number     Number       Type             X           Y           Z
 ---------------------------------------------------------------------
      1          6           0       -0.000093   -1.218195   -0.155604
      2          6           0       -1.228011   -0.321228    0.117358
      3          6           0       -0.667100    1.072536   -0.052556
      4          6           0        0.667261    1.072437   -0.052554
      5          6           0        1.227963   -0.321408    0.117357
      6          1           0       -0.000115   -1.510314   -1.211347
      7          1           0       -0.000164   -2.133972    0.441831
      8          1           0       -2.061820   -0.534881   -0.560064
      9          1           0       -1.608651   -0.453732    1.140153
     10          1           0       -1.291994    1.958693   -0.117324
     11          1           0        1.292284    1.958505   -0.117286
     12          1           0        2.061715   -0.535168   -0.560103
     13          1           0        1.608627   -0.453984    1.140132
 ---------------------------------------------------------------------

 SCF Done:  E(RM062X) =  -195.229707816     A.U. after    1 cycles

 The electronic state is 1-A.
 Alpha  occ. eigenvalues --  -10.54367 -10.54360 -10.54314 -10.54207 -10.54200
 Alpha  occ. eigenvalues --   -0.94243  -0.79934  -0.79572  -0.65382  -0.60412
 Alpha  occ. eigenvalues --   -0.56837  -0.53806  -0.46317  -0.43850  -0.40922
 Alpha  occ. eigenvalues --   -0.40598  -0.40285  -0.39636  -0.29457
 Alpha virt. eigenvalues --    0.03270   0.04091   0.04133   0.04941   0.04987
 Alpha virt. eigenvalues --    0.05438   0.07051   0.08875   0.09119   0.09768
 Alpha virt. eigenvalues --    0.11798   0.11881   0.13169   0.14406   0.15062

 Mulliken charges:
               1
     1  C   -0.465374
     2  C   -0.559015
     3  C   -0.053030
     4  C   -0.053026
     5  C   -0.559016
     6  H    0.218238
     7  H    0.209638
     8  H    0.213141
     9  H    0.218258
    10  H    0.199394
    11  H    0.199394
    12  H    0.213141
    13  H    0.218257
 Sum of Mulliken charges =   0.00000

 Dipole moment (field-independent basis, Debye):
    X=              0.0000    Y=             -0.2194    Z=              0.1183  Tot=              0.2493
 Quadrupole moment (field-independent basis, Debye-Ang):
   XX=            -30.8730   YY=            -31.6179   ZZ=            -33.1858
   XY=              0.0000   XZ=              0.0001   YZ=             -0.1189

  Exact polarizability:  64.417  -0.001  54.989   0.000  -0.740  44.498
 Approx polarizability:  77.037  -0.001  58.729   0.000  -1.075  53.722

                      1                      2                      3
                      A                      A                      A
 Frequencies --    162.8705               391.0992               601.5833
 Red. masses --      1.5874                 2.0140                 1.5870
 Frc consts  --      0.0248                 0.1815                 0.3384
 IR Inten    --      0.2170                 0.0607                11.5909

                      4                      5                      6
                      A                      A                      A
 Frequencies --    718.6676               779.3081               840.5421
 Red. masses --      1.3600                 4.9604                 1.6494
 Frc consts  --      0.4138                 1.7750                 0.6866
 IR Inten    --     42.1895                 0.3801                 1.3018

                      7                      8                      9
                      A                      A                      A
 Frequencies --    900.3978               928.2707               933.7855
 Red. masses --      1.4681                 2.9166                 1.8316
 Frc consts  --      0.7012                 1.4807                 0.9410
 IR Inten    --      1.3455                 0.6687                 9.2145

                     10                     11                     12
                      A                      A                      A
 Frequencies --    983.7409               993.6650              1058.2812
 Red. masses --      1.2529                 2.4170                 1.7529
 Frc consts  --      0.7144                 1.4061                 1.1567
 IR Inten    --      0.0435                 1.4440                 1.7084

                     13                     14                     15
                      A                      A                      A
 Frequencies --   1078.4190              1133.5006              1163.4478
 Red. masses --      1.7285                 1.1020                 1.1879
 Frc consts  --      1.1844                 0.8342                 0.9474
 IR Inten    --      8.5087                 0.2765                 2.1904

                     16                     17                     18
                      A                      A                      A
 Frequencies --   1239.5605              1246.4413              1316.5749
 Red. masses --      1.4328                 1.2179                 1.3287
 Frc consts  --      1.2971                 1.1148                 1.3570
 IR Inten    --      0.0004                 1.8884                 1.8793

                     19                     20                     21
                      A                      A                      A
 Frequencies --   1343.1757              1349.7791              1395.2203
 Red. masses --      1.3111                 1.7312                 1.7167
 Frc consts  --      1.3937                 1.8583                 1.9689
 IR Inten    --      0.6018                 1.2442                 2.4615

                     22                     23                     24
                      A                      A                      A
 Frequencies --   1502.5972              1508.4290              1530.8011
 Red. masses --      1.0833                 1.0923                 1.1086
 Frc consts  --      1.4411                 1.4644                 1.5305
 IR Inten    --      2.4449                 1.9466                 1.7904

                     25                     26                     27
                      A                      A                      A
 Frequencies --   1710.4870              3051.2942              3053.6732
 Red. masses --      6.2624                 1.0693                 1.0677
 Frc consts  --     10.7952                 5.8655                 5.8659
 IR Inten    --      3.4697                26.1909                48.5938

                     28                     29                     30
                      A                      A                      A
 Frequencies --   3096.1058              3109.3564              3114.6683
 Red. masses --      1.0714                 1.0952                 1.0847
 Frc consts  --      6.0513                 6.2385                 6.2001
 IR Inten    --     12.3325                27.3549                43.5861

                     31                     32                     33
                      A                      A                      A
 Frequencies --   3152.0509              3218.4949              3242.3629
 Red. masses --      1.1054                 1.0857                 1.1040
 Frc consts  --      6.4708                 6.6263                 6.8384
 IR Inten    --     36.9070                 5.5704                20.0368

 - Thermochemistry -
 -------------------
 Temperature   298.150 Kelvin.  Pressure   1.00000 Atm.
 Atom     1 has atomic number  6 and mass  12.00000

 Molecular mass:    68.06260 amu.
 Principal axes and moments of inertia in atomic units:
                           1         2         3
     Eigenvalues --   246.77820 248.78331 455.25957
           X            1.00000  -0.00014   0.00000
           Y            0.00014   1.00000  -0.00021
           Z            0.00000   0.00021   1.00000
 This molecule is an asymmetric top.
 Rotational symmetry number  1.
 Rotational temperatures (Kelvin)      0.35098     0.34815     0.19025
 Rotational constants (GHZ):           7.31321     7.25427     3.96420
 Zero-point vibrational energy     310123.8 (Joules/Mol)
                                   74.12137 (Kcal/Mol)
 Warning -- explicit consideration of   3 degrees of freedom as
           vibrations may cause significant error
 Vibrational temperatures:    234.33   562.70   865.54  1034.00  1121.25
          (Kelvin)           1209.35  1295.47  1335.57  1343.51  1415.38
                             1429.66  1522.63  1551.60  1630.85  1673.94
                             1783.45  1793.35  1894.26  1932.53  1942.03
                             2007.41  2161.90  2170.29  2202.48  2461.01
                             4390.13  4393.55  4454.60  4473.66  4481.31
                             4535.09  4630.69  4665.03

 Zero-point correction=                           0.118120 (Hartree/Particle)
 Thermal correction to Energy=                    0.122714
 Thermal correction to Enthalpy=                  0.123658
 Thermal correction to Gibbs Free Energy=         0.090837
 Sum of electronic and zero-point Energies=           -195.111588
 Sum of electronic and thermal Energies=              -195.106994
 Sum of electronic and thermal Enthalpies=            -195.106050
 Sum of electronic and thermal Free Energies=         -195.138871

                     E (Thermal)             CV                S
                      KCal/Mol        Cal/Mol-Kelvin    Cal/Mol-Kelvin
 Total                   77.004             16.838             69.078
 Electronic               0.000              0.000              0.000
 Translational            0.889              2.981             38.571
 Rotational               0.889              2.981             24.839
 Vibrational             75.227             10.876              5.668
 Vibration     1          0.623              1.888              2.516
 Vibration     2          0.759              1.489              0.996
 Vibration     3          0.960              1.028              0.447

 Optimization completed.
    -- Stationary point found.
 Normal termination of Gaussian 09 at Mon Mar 17 15:21:37 2025.
