 Gaussian 09, Revision D.01,
 Gaussian 09:  ES64L-G09RevD.01 24-Apr-2013

 ---------------------------------
 #m062X/6-31+G(d) OPT Freq=noraman
 ---------------------------------

 -------
 methane
 -------
 Symbolic Z-matrix:
 Charge =  0 Multiplicity = 1

 SCF Done:  E(RM062X) =  -40.4835371934     A.U. after    7 cycles
 Optimization completed.
    -- Stationary point found.
 Normal termination of Gaussian 09 at Fri Mar 14 14:01:37 2025.

 ---------------------------------------------------------------------
 #N Geom=AllCheck Guess=TCheck SCRF=Check GenChk RM062X/6-31+G(d) Freq
 ---------------------------------------------------------------------

 Structure from the checkpoint file:  "/srv/scratch/z5358697/gauss/Gau-2169372.chk"
 -------
 methane
 -------
 Charge =  0 Multiplicity = 1

                         Standard orientation:
 ---------------------------------------------------------------------
 Center     Atomic      Atomic             Coordinates (Angstroms)
 Number     Number       Type             X           Y           Z
 ---------------------------------------------------------------------
      1          6           0        0.000001    0.000041   -0.000005
      2          1           0       -0.293240   -0.968946   -0.410046
      3          1           0        0.629313    0.525411   -0.721581
      4          1           0       -0.893454    0.594046    0.204644
      5          1           0        0.557379   -0.150757    0.927015
 ---------------------------------------------------------------------

 SCF Done:  E(RM062X) =  -40.4835371934     A.U. after    1 cycles

 The electronic state is 1-A.
 Alpha  occ. eigenvalues --  -10.52733  -0.78591  -0.45646  -0.45642  -0.45638
 Alpha virt. eigenvalues --    0.03890   0.07121   0.07122   0.07123   0.22932
 Alpha virt. eigenvalues --    0.22937   0.22939   0.30992   0.69230   0.69232
 Alpha virt. eigenvalues --    0.69234   0.99791   0.99798   0.99805   1.11477

 Mulliken charges:
               1
     1  C   -0.816629
     2  H    0.204159
     3  H    0.204176
     4  H    0.204147
     5  H    0.204149
 Sum of Mulliken charges =   0.00000

 Dipole moment (field-independent basis, Debye):
    X=              0.0001    Y=             -0.0002    Z=             -0.0001  Tot=              0.0002
 Quadrupole moment (field-independent basis, Debye-Ang):
   XX=             -8.4834   YY=             -8.4842   ZZ=             -8.4847
   XY=              0.0001   XZ=             -0.0001   YZ=             -0.0002

  Exact polarizability:  13.302   0.035  13.338  -0.005  -0.002  13.299
 Approx polarizability:  13.087   0.000  13.086   0.001   0.001  13.083

                      1                      2                      3
                      A                      A                      A
 Frequencies --   1363.1474              1364.4873              1368.1298
 Red. masses --      1.1790                 1.1791                 1.1787
 Frc consts  --      1.2908                 1.2934                 1.2999
 IR Inten    --     19.8565                19.8662                19.9238

                      4                      5                      6
                      A                      A                      A
 Frequencies --   1587.3165              1588.4208              3066.8861
 Red. masses --      1.0078                 1.0078                 1.0078
 Frc consts  --      1.4961                 1.4982                 5.5852
 IR Inten    --      0.0008                 0.0009                 0.0042

                      7                      8                      9
                      A                      A                      A
 Frequencies --   3184.1642              3185.9064              3186.9148
 Red. masses --      1.1017                 1.1018                 1.1016
 Frc consts  --      6.5810                 6.5889                 6.5921
 IR Inten    --     18.8510                18.9853                19.0708

 - Thermochemistry -
 -------------------
 Temperature   298.150 Kelvin.  Pressure   1.00000 Atm.
 Atom     1 has atomic number  6 and mass  12.00000

 Molecular mass:    16.03130 amu.
 Principal axes and moments of inertia in atomic units:
                           1         2         3
     Eigenvalues --    11.44696  11.44848  11.45020
           X            1.00000   0.00000   0.00000
           Y            0.00000   1.00000   0.00000
           Z            0.00000   0.00000   1.00000
 This molecule is an asymmetric top.
 Rotational symmetry number  1.
 Rotational temperatures (Kelvin)      7.56654     7.56553     7.56439
 Rotational constants (GHZ):         157.66120   157.64024   157.61655
 Zero-point vibrational energy     119000.8 (Joules/Mol)
                                   28.44186 (Kcal/Mol)
 Vibrational temperatures:   1961.26  1963.19  1968.43  2283.79  2285.38
          (Kelvin)           4412.56  4581.30  4583.80  4585.25

 Zero-point correction=                           0.045325 (Hartree/Particle)
 Thermal correction to Energy=                    0.048190
 Thermal correction to Enthalpy=                  0.049134
 Thermal correction to Gibbs Free Energy=         0.025658
 Sum of electronic and zero-point Energies=            -40.438212
 Sum of electronic and thermal Energies=               -40.435347
 Sum of electronic and thermal Enthalpies=             -40.434403
 Sum of electronic and thermal Free Energies=          -40.457879

                     E (Thermal)             CV                S
                      KCal/Mol        Cal/Mol-Kelvin    Cal/Mol-Kelvin
 Total                   30.240              6.429             49.410
 Electronic               0.000              0.000              0.000
 Translational            0.889              2.981             34.261
 Rotational               0.889              2.981             15.070
 Vibrational             28.462              0.467              0.079

 Optimization completed.
    -- Stationary point found.
 Normal termination of Gaussian 09 at Fri Mar 14 14:01:42 2025.
