 Gaussian 09, Revision D.01,
 Gaussian 09:  ES64L-G09RevD.01 24-Apr-2013

 ---------------------------------
 #m062X/6-31+G(d) OPT Freq=noraman
 ---------------------------------

 --------------
 dibromomethane
 --------------
 Symbolic Z-matrix:
 Charge =  0 Multiplicity = 1

 SCF Done:  E(RM062X) =  -5182.86077131     A.U. after   11 cycles
 SCF Done:  E(RM062X) =  -5182.86093740     A.U. after    9 cycles
 SCF Done:  E(RM062X) =  -5182.86096060     A.U. after    8 cycles
 Optimization completed.
    -- Stationary point found.
 Normal termination of Gaussian 09 at Fri Mar 14 14:02:09 2025.

 ---------------------------------------------------------------------
 #N Geom=AllCheck Guess=TCheck SCRF=Check GenChk RM062X/6-31+G(d) Freq
 ---------------------------------------------------------------------

 Structure from the checkpoint file:  "/srv/scratch/z5358697/gauss/Gau-1829110.chk"
 --------------
 dibromomethane
 --------------
 Charge =  0 Multiplicity = 1

                         Standard orientation:
 ---------------------------------------------------------------------
 Center     Atomic      Atomic             Coordinates (Angstroms)
 Number     Number       Type             X           Y           Z
 ---------------------------------------------------------------------
      1          6           0        0.000009    0.939815    0.000001
      2         35           0       -1.603022   -0.124739    0.000000
      3         35           0        1.603021   -0.124740    0.000000
      4          1           0        0.000000    1.546470    0.899731
      5          1           0        0.000000    1.546416   -0.899766
 ---------------------------------------------------------------------

 SCF Done:  E(RM062X) =  -5182.86096060     A.U. after    1 cycles

 The electronic state is 1-A.
 Alpha  occ. eigenvalues -- -485.48797-485.48795 -62.77048 -62.77025 -57.30345
 Alpha  occ. eigenvalues --  -57.30336 -57.30070 -57.30053 -57.30052 -57.30046
 Alpha  occ. eigenvalues --  -10.66991  -8.94445  -8.94437  -6.89951  -6.89951
 Alpha  occ. eigenvalues --   -6.88862  -6.88861  -6.88828  -6.88827  -2.92802
 Alpha  occ. eigenvalues --   -2.92801  -2.92429  -2.92429  -2.92399  -2.92398
 Alpha  occ. eigenvalues --   -2.91439  -2.91439  -2.91438  -2.91438  -0.95267
 Alpha  occ. eigenvalues --   -0.86058  -0.74302  -0.56627  -0.50520  -0.47899
 Alpha  occ. eigenvalues --   -0.36748  -0.36241  -0.34961  -0.34358
 Alpha virt. eigenvalues --   -0.01888   0.01648   0.02045   0.04766   0.05224
 Alpha virt. eigenvalues --    0.05456   0.07685   0.07775   0.08253   0.08562
 Alpha virt. eigenvalues --    0.08855   0.11439   0.14184   0.15250   0.20544

 Mulliken charges:
               1
     1  C   -0.474335
     2  Br  -0.040768
     3  Br  -0.040757
     4  H    0.277929
     5  H    0.277930
 Sum of Mulliken charges =   0.00000

 Dipole moment (field-independent basis, Debye):
    X=              0.0001    Y=              1.6592    Z=              0.0000  Tot=              1.6592
 Quadrupole moment (field-independent basis, Debye-Ang):
   XX=            -45.3025   YY=            -40.9741   ZZ=            -43.7275
   XY=              0.0000   XZ=              0.0000   YZ=              0.0000

  Exact polarizability:  65.597   0.000  41.500   0.000   0.000  36.971
 Approx polarizability:  76.032   0.000  54.893   0.000   0.000  47.268

                      1                      2                      3
                      A                      A                      A
 Frequencies --    185.0822               613.5551               676.0811
 Red. masses --     38.3655                 6.1609                 6.5512
 Frc consts  --      0.7743                 1.3665                 1.7643
 IR Inten    --      0.0726                 4.8571                97.2515

                      4                      5                      6
                      A                      A                      A
 Frequencies --    862.7261              1176.2136              1279.2804
 Red. masses --      1.3072                 1.0118                 1.1198
 Frc consts  --      0.5732                 0.8248                 1.0798
 IR Inten    --      4.5260                 0.0000                84.4317

                      7                      8                      9
                      A                      A                      A
 Frequencies --   1478.7267              3192.9545              3277.6272
 Red. masses --      1.0789                 1.0540                 1.1162
 Frc consts  --      1.3899                 6.3310                 7.0652
 IR Inten    --      0.0651                 0.7356                 3.4839

 - Thermochemistry -
 -------------------
 Temperature   298.150 Kelvin.  Pressure   1.00000 Atm.
 Atom     1 has atomic number  6 and mass  12.00000

 Molecular mass:   171.85232 amu.
 Principal axes and moments of inertia in atomic units:
                           1         2         3
     Eigenvalues --    69.078941454.212991511.63766
           X            1.00000   0.00000   0.00000
           Y            0.00000   1.00000   0.00000
           Z            0.00000   0.00000   1.00000
 This molecule is an asymmetric top.
 Rotational symmetry number  1.
 Rotational temperatures (Kelvin)      1.25384     0.05956     0.05730
 Rotational constants (GHZ):          26.12578     1.24104     1.19390
 Zero-point vibrational energy      76215.6 (Joules/Mol)
                                   18.21596 (Kcal/Mol)
 Warning -- explicit consideration of   2 degrees of freedom as
           vibrations may cause significant error
 Vibrational temperatures:    266.29   882.77   972.73  1241.27  1692.31
          (Kelvin)           1840.60  2127.56  4593.94  4715.77

 Zero-point correction=                           0.029029 (Hartree/Particle)
 Thermal correction to Energy=                    0.032819
 Thermal correction to Enthalpy=                  0.033764
 Thermal correction to Gibbs Free Energy=        -0.000038
 Sum of electronic and zero-point Energies=          -5182.831932
 Sum of electronic and thermal Energies=             -5182.828141
 Sum of electronic and thermal Enthalpies=           -5182.827197
 Sum of electronic and thermal Free Energies=        -5182.860999

                     E (Thermal)             CV                S
                      KCal/Mol        Cal/Mol-Kelvin    Cal/Mol-Kelvin
 Total                   20.594             10.714             71.142
 Electronic               0.000              0.000              0.000
 Translational            0.889              2.981             41.332
 Rotational               0.889              2.981             26.521
 Vibrational             18.817              4.752              3.289
 Vibration     1          0.631              1.860              2.277
 Vibration     2          0.973              1.003              0.427

 Optimization completed.
    -- Stationary point found.
 Normal termination of Gaussian 09 at Fri Mar 14 14:02:36 2025.
