 Gaussian 09, Revision D.01,
 Gaussian 09:  ES64L-G09RevD.01 24-Apr-2013

 ---------------------------------
 #m062X/6-31+G(d) OPT Freq=noraman
 ---------------------------------

 ------------------
 3,4-dichlorophenol
 ------------------
 Symbolic Z-matrix:
 Charge =  0 Multiplicity = 1

 SCF Done:  E(RM062X) =  -1226.47527447     A.U. after   15 cycles
 SCF Done:  E(RM062X) =  -1226.47637918     A.U. after   12 cycles
 SCF Done:  E(RM062X) =  -1226.47643064     A.U. after   12 cycles
 SCF Done:  E(RM062X) =  -1226.47643439     A.U. after   10 cycles
 Optimization completed.
    -- Stationary point found.
 Normal termination of Gaussian 09 at Fri Mar 21 11:42:09 2025.

 ---------------------------------------------------------------------
 #N Geom=AllCheck Guess=TCheck SCRF=Check GenChk RM062X/6-31+G(d) Freq
 ---------------------------------------------------------------------

 Structure from the checkpoint file:  "/srv/scratch/z5358697/gauss/Gau-2591383.chk"
 ------------------
 3,4-dichlorophenol
 ------------------
 Charge =  0 Multiplicity = 1

                         Standard orientation:
 ---------------------------------------------------------------------
 Center     Atomic      Atomic             Coordinates (Angstroms)
 Number     Number       Type             X           Y           Z
 ---------------------------------------------------------------------
      1          6           0       -1.756227   -1.315769   -0.000007
      2          6           0       -0.414933   -1.679708   -0.000001
      3          6           0        0.586463   -0.713143    0.000000
      4          6           0        0.227670    0.638128    0.000003
      5          6           0       -1.111120    1.012620    0.000004
      6          6           0       -2.103324    0.035350   -0.000004
      7          8           0       -3.392195    0.469578   -0.000010
      8         17           0        1.435348    1.883032   -0.000002
      9         17           0        2.247920   -1.211820    0.000002
     10          1           0       -2.526652   -2.082859   -0.000017
     11          1           0       -0.132611   -2.727491   -0.000001
     12          1           0       -1.388842    2.060880    0.000012
     13          1           0       -4.001067   -0.282615    0.000117
 ---------------------------------------------------------------------

 SCF Done:  E(RM062X) =  -1226.47643439     A.U. after    1 cycles

 The electronic state is 1-A.
 Alpha  occ. eigenvalues -- -102.68169-102.67982 -19.69836 -10.64286 -10.63897
 Alpha  occ. eigenvalues --  -10.62990 -10.58794 -10.58125 -10.57833  -9.82815
 Alpha  occ. eigenvalues --   -9.82619  -7.55236  -7.55043  -7.54552  -7.54521
 Alpha  occ. eigenvalues --   -7.54351  -7.54334  -1.21042  -1.02934  -0.96481
 Alpha  occ. eigenvalues --   -0.94785  -0.86257  -0.83201  -0.73052  -0.71406
 Alpha  occ. eigenvalues --   -0.63728  -0.59423  -0.57222  -0.53615  -0.52139
 Alpha  occ. eigenvalues --   -0.51750  -0.49909  -0.47798  -0.46579  -0.43846
 Alpha  occ. eigenvalues --   -0.41878  -0.39635  -0.38897  -0.37660  -0.32138
 Alpha  occ. eigenvalues --   -0.29106
 Alpha virt. eigenvalues --   -0.00709   0.00062   0.01128   0.01909   0.02124
 Alpha virt. eigenvalues --    0.03319   0.04494   0.06247   0.06449   0.06643
 Alpha virt. eigenvalues --    0.07464   0.08448   0.09490   0.09534   0.10129

 Mulliken charges:
               1
     1  C    0.155188
     2  C   -0.624682
     3  C   -0.267622
     4  C   -0.291511
     5  C   -0.046269
     6  C    0.148759
     7  O   -0.677730
     8  Cl   0.208646
     9  Cl   0.214540
    10  H    0.204725
    11  H    0.236625
    12  H    0.247918
    13  H    0.491414
 Sum of Mulliken charges =   0.00000

 Dipole moment (field-independent basis, Debye):
    X=             -3.0255    Y=             -2.0566    Z=              0.0002  Tot=              3.6583
 Quadrupole moment (field-independent basis, Debye-Ang):
   XX=            -59.5279   YY=            -61.8978   ZZ=            -68.7308
   XY=              6.6365   XZ=             -0.0010   YZ=             -0.0001

  Exact polarizability: 127.086   3.301 102.976   0.000   0.000  51.615
 Approx polarizability: 152.774   2.981 130.729   0.000   0.000  65.854

                      1                      2                      3
                      A                      A                      A
 Frequencies --    113.7712               185.3583               207.5851
 Red. masses --      7.8364                 5.7758                29.9547
 Frc consts  --      0.0598                 0.1169                 0.7605
 IR Inten    --      0.5316                 2.2965                 0.0891

                      4                      5                      6
                      A                      A                      A
 Frequencies --    276.4221               329.2558               338.9463
 Red. masses --      9.0199                 4.4316                 1.1985
 Frc consts  --      0.4061                 0.2831                 0.0811
 IR Inten    --      2.1335                 2.2651               124.1997

                      7                      8                      9
                      A                      A                      A
 Frequencies --    380.4052               452.1972               455.4269
 Red. masses --     13.1428                 8.0131                 3.2163
 Frc consts  --      1.1206                 0.9654                 0.3930
 IR Inten    --      0.7936                 7.3597                 2.0166

                     10                     11                     12
                      A                      A                      A
 Frequencies --    494.7278               592.2379               664.2423
 Red. masses --      4.8344                 3.9421                 7.5006
 Frc consts  --      0.6971                 0.8146                 1.9498
 IR Inten    --      3.1959                 9.7563                34.0657

                     13                     14                     15
                      A                      A                      A
 Frequencies --    675.2425               705.8583               814.6607
 Red. masses --      4.3083                 7.4278                 1.4701
 Frc consts  --      1.1574                 2.1804                 0.5749
 IR Inten    --      0.7447                 7.1487                37.6846

                     16                     17                     18
                      A                      A                      A
 Frequencies --    893.4304               937.2457               959.1817
 Red. masses --      1.4074                 6.2409                 1.3122
 Frc consts  --      0.6619                 3.2300                 0.7113
 IR Inten    --     21.1865                52.6821                 3.0861

                     19                     20                     21
                      A                      A                      A
 Frequencies --   1047.0376              1162.3945              1173.5873
 Red. masses --      4.2615                 1.6892                 1.4183
 Frc consts  --      2.7525                 1.3447                 1.1509
 IR Inten    --     20.2123                42.0934                19.5047

                     22                     23                     24
                      A                      A                      A
 Frequencies --   1200.2304              1271.2851              1332.4941
 Red. masses --      1.3521                 1.6150                 3.7140
 Frc consts  --      1.1476                 1.5378                 3.8853
 IR Inten    --    134.6466                 2.6399                37.7977

                     25                     26                     27
                      A                      A                      A
 Frequencies --   1341.3849              1480.1921              1540.2268
 Red. masses --      4.7725                 3.2742                 3.3394
 Frc consts  --      5.0594                 4.2266                 4.6676
 IR Inten    --     99.4147                38.9598               182.3623

                     28                     29                     30
                      A                      A                      A
 Frequencies --   1667.2586              1694.8082              3200.2588
 Red. masses --      7.5222                 6.7404                 1.0914
 Frc consts  --     12.3198                11.4071                 6.5855
 IR Inten    --     41.6124                77.4210                 7.4804

                     31                     32                     33
                      A                      A                      A
 Frequencies --   3253.1577              3263.9648              3824.0637
 Red. masses --      1.0936                 1.0927                 1.0665
 Frc consts  --      6.8189                 6.8586                 9.1891
 IR Inten    --      0.1455                 1.1577                91.3612

 - Thermochemistry -
 -------------------
 Temperature   298.150 Kelvin.  Pressure   1.00000 Atm.
 Atom     1 has atomic number  6 and mass  12.00000

 Molecular mass:   161.96392 amu.
 Principal axes and moments of inertia in atomic units:
                           1         2         3
     Eigenvalues --   974.554722029.400753003.95547
           X            0.99990   0.01400   0.00000
           Y           -0.01400   0.99990   0.00000
           Z            0.00000   0.00000   1.00000
 This molecule is an asymmetric top.
 Rotational symmetry number  1.
 Warning -- assumption of classical behavior for rotation
           may cause significant error
 Rotational temperatures (Kelvin)      0.08888     0.04268     0.02883
 Rotational constants (GHZ):           1.85186     0.88930     0.60079
 Zero-point vibrational energy     226863.0 (Joules/Mol)
                                   54.22157 (Kcal/Mol)
 Warning -- explicit consideration of  11 degrees of freedom as
           vibrations may cause significant error
 Vibrational temperatures:    163.69   266.69   298.67   397.71   473.73
          (Kelvin)            487.67   547.32   650.61   655.26   711.80
                              852.10   955.70   971.52  1015.57  1172.11
                             1285.45  1348.49  1380.05  1506.45  1672.42
                             1688.53  1726.86  1829.09  1917.16  1929.95
                             2129.66  2216.04  2398.81  2438.45  4604.45
                             4680.56  4696.11  5501.97

 Zero-point correction=                           0.086408 (Hartree/Particle)
 Thermal correction to Energy=                    0.094245
 Thermal correction to Enthalpy=                  0.095190
 Thermal correction to Gibbs Free Energy=         0.053131
 Sum of electronic and zero-point Energies=          -1226.390027
 Sum of electronic and thermal Energies=             -1226.382189
 Sum of electronic and thermal Enthalpies=           -1226.381245
 Sum of electronic and thermal Free Energies=        -1226.423304

                     E (Thermal)             CV                S
                      KCal/Mol        Cal/Mol-Kelvin    Cal/Mol-Kelvin
 Total                   59.140             29.288             88.520
 Electronic               0.000              0.000              0.000
 Translational            0.889              2.981             41.155
 Rotational               0.889              2.981             30.164
 Vibrational             57.362             23.327             17.201
 Vibration     1          0.607              1.938              3.204
 Vibration     2          0.631              1.860              2.274
 Vibration     3          0.641              1.829              2.065
 Vibration     4          0.678              1.717              1.556
 Vibration     5          0.712              1.617              1.264
 Vibration     6          0.719              1.598              1.217
 Vibration     7          0.750              1.512              1.038
 Vibration     8          0.811              1.356              0.789
 Vibration     9          0.814              1.349              0.780
 Vibration    10          0.850              1.262              0.671
 Vibration    11          0.950              1.048              0.463

 Optimization completed.
    -- Stationary point found.
 Normal termination of Gaussian 09 at Fri Mar 21 11:48:26 2025.
