 Gaussian 09, Revision D.01,
 Gaussian 09:  ES64L-G09RevD.01 24-Apr-2013

 ---------------------------------
 #m062X/6-31+G(d) OPT Freq=noraman
 ---------------------------------

 -----------------
 2-methylthiophene
 -----------------
 Symbolic Z-matrix:
 Charge =  0 Multiplicity = 1

 SCF Done:  E(RM062X) =  -592.197367204     A.U. after   14 cycles
 SCF Done:  E(RM062X) =  -592.198643420     A.U. after   12 cycles
 SCF Done:  E(RM062X) =  -592.198825397     A.U. after   11 cycles
 SCF Done:  E(RM062X) =  -592.198890773     A.U. after   11 cycles
 SCF Done:  E(RM062X) =  -592.198972449     A.U. after   12 cycles
 SCF Done:  E(RM062X) =  -592.199063701     A.U. after   11 cycles
 SCF Done:  E(RM062X) =  -592.199152908     A.U. after   13 cycles
 SCF Done:  E(RM062X) =  -592.199300758     A.U. after   12 cycles
 SCF Done:  E(RM062X) =  -592.199309819     A.U. after   11 cycles
 SCF Done:  E(RM062X) =  -592.199312405     A.U. after   10 cycles
 SCF Done:  E(RM062X) =  -592.199312773     A.U. after    9 cycles
 SCF Done:  E(RM062X) =  -592.199312844     A.U. after    8 cycles
 SCF Done:  E(RM062X) =  -592.199312848     A.U. after    7 cycles
 Optimization completed.
    -- Stationary point found.

 1\1\GINC-KATANA1\FOpt\RM062X\6-31+G(d)\C5H6S1\Z5358697\21-Mar-2025\0\\
 #m062X/6-31+G(d) OPT Freq=noraman\\2-methylthiophene\\0,1\C,-1.8183737
 109,-2.2355652403,-0.4416875471\C,-1.3445051484,-1.1096106045,-1.31074
 4618\C,-0.5645074378,-0.0424056245,-0.9645224123\C,-0.3039012932,0.847
 2709139,-2.0541287603\C,-0.8934745775,0.4374234239,-3.2128783355\S,-1.
 7703805822,-1.0328604066,-2.9905971573\H,-1.4600511092,-3.2041296078,-
 0.8053927911\H,-1.4418664806,-2.0951031589,0.5752546931\H,-2.911521297
 4,-2.2772712588,-0.3959752304\H,-0.1865993363,0.1035361796,0.042244988

 Normal termination of Gaussian 09 at Fri Mar 21 00:10:22 2025.

 ---------------------------------------------------------------------
 #N Geom=AllCheck Guess=TCheck SCRF=Check GenChk RM062X/6-31+G(d) Freq
 ---------------------------------------------------------------------

 Structure from the checkpoint file:  "/srv/scratch/z5358697/gauss/Gau-4063448.chk"
 -----------------
 2-methylthiophene
 -----------------
 Charge =  0 Multiplicity = 1

                         Standard orientation:
 ---------------------------------------------------------------------
 Center     Atomic      Atomic             Coordinates (Angstroms)
 Number     Number       Type             X           Y           Z
 ---------------------------------------------------------------------
      1          6           0       -2.273096    0.108764    0.000024
      2          6           0       -0.778281    0.223285   -0.000028
      3          6           0       -0.015288    1.356879   -0.000019
      4          6           0        1.391052    1.094408    0.000018
      5          6           0        1.671319   -0.239654    0.000017
      6         16           0        0.229338   -1.188758   -0.000008
      7          1           0       -2.636862   -0.422772    0.885427
      8          1           0       -2.715770    1.108613   -0.000627
      9          1           0       -2.636849   -0.423866   -0.884730
     10          1           0       -0.447148    2.352464   -0.000035
     11          1           0        2.153388    1.865295    0.000018
     12          1           0        2.639593   -0.721700   -0.000001
 ---------------------------------------------------------------------

 SCF Done:  E(RM062X) =  -592.199312848     A.U. after    1 cycles

 The electronic state is 1-A.
 Alpha  occ. eigenvalues --  -89.94817 -10.58513 -10.57538 -10.55706 -10.55414
 Alpha  occ. eigenvalues --  -10.55114  -8.29348  -6.21352  -6.21128  -6.20912
 Alpha  occ. eigenvalues --   -0.98266  -0.86163  -0.82186  -0.76694  -0.63682
 Alpha  occ. eigenvalues --   -0.60920  -0.57304  -0.49966  -0.49612  -0.46698
 Alpha  occ. eigenvalues --   -0.44235  -0.43163  -0.42409  -0.39556  -0.30137
 Alpha  occ. eigenvalues --   -0.28126
 Alpha virt. eigenvalues --    0.01515   0.02306   0.02545   0.03822   0.04131
 Alpha virt. eigenvalues --    0.05270   0.05715   0.05927   0.07447   0.08492
 Alpha virt. eigenvalues --    0.08986   0.09433   0.09915   0.10835   0.13066

 Mulliken charges:
               1
     1  C   -0.828235
     2  C    0.016422
     3  C   -0.074723
     4  C   -0.310565
     5  C   -0.256251
     6  S    0.099936
     7  H    0.233392
     8  H    0.222473
     9  H    0.233361
    10  H    0.208798
    11  H    0.214764
    12  H    0.240628
 Sum of Mulliken charges =   0.00000

 Dipole moment (field-independent basis, Debye):
    X=             -0.4366    Y=              0.5359    Z=              0.0000  Tot=              0.6912
 Quadrupole moment (field-independent basis, Debye-Ang):
   XX=            -37.6903   YY=            -41.7541   ZZ=            -47.1773
   XY=             -0.4705   XZ=              0.0000   YZ=             -0.0001

  Exact polarizability:  84.842   1.957  81.456   0.000   0.000  47.954
 Approx polarizability: 101.861   2.496 110.998   0.000   0.000  60.092

                      1                      2                      3
                      A                      A                      A
 Frequencies --     49.5323               232.7328               305.2447
 Red. masses --      1.0572                 3.0458                 2.9556
 Frc consts  --      0.0015                 0.0972                 0.1623
 IR Inten    --      0.1236                 3.8223                 0.8301

                      4                      5                      6
                      A                      A                      A
 Frequencies --    479.2447               557.3627               572.4284
 Red. masses --      4.2967                 6.1592                 2.8140
 Frc consts  --      0.5814                 1.1273                 0.5433
 IR Inten    --      6.1563                 0.5562                 0.2451

                      7                      8                      9
                      A                      A                      A
 Frequencies --    685.0561               699.5832               760.1221
 Red. masses --      5.3067                 1.1865                 7.1937
 Frc consts  --      1.4673                 0.3421                 2.4489
 IR Inten    --      3.1113                85.5873                 0.2023

                     10                     11                     12
                      A                      A                      A
 Frequencies --    834.0317               874.9323               914.3259
 Red. masses --      1.2781                 3.9155                 1.3430
 Frc consts  --      0.5238                 1.7660                 0.6615
 IR Inten    --     11.7159                15.6678                 0.4840

                     13                     14                     15
                      A                      A                      A
 Frequencies --   1004.1937              1068.5313              1072.8286
 Red. masses --      1.5920                 1.4149                 1.4315
 Frc consts  --      0.9458                 0.9518                 0.9707
 IR Inten    --      1.2191                 0.2594                 2.6483

                     16                     17                     18
                      A                      A                      A
 Frequencies --   1111.9270              1204.3718              1269.5703
 Red. masses --      1.1579                 3.9037                 1.4015
 Frc consts  --      0.8435                 3.3362                 1.3309
 IR Inten    --      2.4641                14.4074                13.1066

                     19                     20                     21
                      A                      A                      A
 Frequencies --   1401.4918              1435.9052              1500.1623
 Red. masses --      2.3252                 1.2716                 1.0409
 Frc consts  --      2.6909                 1.5448                 1.3801
 IR Inten    --      0.8577                 0.4541                10.0500

                     22                     23                     24
                      A                      A                      A
 Frequencies --   1516.7005              1533.3817              1633.5822
 Red. masses --      1.1559                 4.6332                 5.6862
 Frc consts  --      1.5667                 6.4184                 8.9404
 IR Inten    --     12.0416                11.9191                 2.2901

                     25                     26                     27
                      A                      A                      A
 Frequencies --   3074.2138              3140.4703              3158.2177
 Red. masses --      1.0354                 1.1023                 1.1023
 Frc consts  --      5.7655                 6.4053                 6.4777
 IR Inten    --     26.3178                 9.0950                 9.6535

                     28                     29                     30
                      A                      A                      A
 Frequencies --   3223.0757              3239.6600              3275.2164
 Red. masses --      1.0907                 1.0944                 1.0990
 Frc consts  --      6.6754                 6.7677                 6.9459
 IR Inten    --      6.1571                 3.2331                 0.8210

 - Thermochemistry -
 -------------------
 Temperature   298.150 Kelvin.  Pressure   1.00000 Atm.
 Atom     1 has atomic number  6 and mass  12.00000

 Molecular mass:    98.01902 amu.
 Principal axes and moments of inertia in atomic units:
                           1         2         3
     Eigenvalues --   341.84002 580.25460 910.81729
           X            1.00000   0.00203   0.00000
           Y           -0.00203   1.00000   0.00000
           Z            0.00000   0.00000   1.00000
 This molecule is an asymmetric top.
 Rotational symmetry number  1.
 Rotational temperatures (Kelvin)      0.25338     0.14927     0.09509
 Rotational constants (GHZ):           5.27949     3.11026     1.98145
 Zero-point vibrational energy     250187.6 (Joules/Mol)
                                   59.79627 (Kcal/Mol)
 Warning -- explicit consideration of   6 degrees of freedom as
           vibrations may cause significant error
 Vibrational temperatures:     71.27   334.85   439.18   689.53   801.92
          (Kelvin)            823.60   985.64  1006.54  1093.64  1199.98
                             1258.83  1315.51  1444.81  1537.38  1543.56
                             1599.81  1732.82  1826.63  2016.43  2065.94
                             2158.40  2182.19  2206.19  2350.36  4423.10
                             4518.43  4543.97  4637.28  4661.14  4712.30

 Zero-point correction=                           0.095291 (Hartree/Particle)
 Thermal correction to Energy=                    0.101163
 Thermal correction to Enthalpy=                  0.102107
 Thermal correction to Gibbs Free Energy=         0.065070
 Sum of electronic and zero-point Energies=           -592.104021
 Sum of electronic and thermal Energies=              -592.098150
 Sum of electronic and thermal Enthalpies=            -592.097206
 Sum of electronic and thermal Free Energies=         -592.134243

                     E (Thermal)             CV                S
                      KCal/Mol        Cal/Mol-Kelvin    Cal/Mol-Kelvin
 Total                   63.481             21.002             77.951
 Electronic               0.000              0.000              0.000
 Translational            0.889              2.981             39.658
 Rotational               0.889              2.981             26.693
 Vibrational             61.703             15.041             11.600
 Vibration     1          0.595              1.978              4.836
 Vibration     2          0.653              1.791              1.858
 Vibration     3          0.696              1.664              1.388
 Vibration     4          0.836              1.296              0.712
 Vibration     5          0.913              1.124              0.529
 Vibration     6          0.929              1.091              0.500

 Optimization completed.
    -- Stationary point found.

 1\1\GINC-KATANA1\Freq\RM062X\6-31+G(d)\C5H6S1\Z5358697\21-Mar-2025\0\\
 #N Geom=AllCheck Guess=TCheck SCRF=Check GenChk RM062X/6-31+G(d) Freq\
 \2-methylthiophene\\0,1\C,-1.8183737109,-2.2355652403,-0.4416875471\C,
 -1.3445051484,-1.1096106045,-1.310744618\C,-0.5645074378,-0.0424056245
 ,-0.9645224123\C,-0.3039012932,0.8472709139,-2.0541287603\C,-0.8934745
 775,0.4374234239,-3.2128783355\S,-1.7703805822,-1.0328604066,-2.990597
 1573\H,-1.4600511092,-3.2041296078,-0.8053927911\H,-1.4418664806,-2.09
 51031589,0.5752546931\H,-2.9115212974,-2.2772712588,-0.3959752304\H,-0

 Normal termination of Gaussian 09 at Fri Mar 21 00:12:47 2025.
