 Gaussian 09, Revision D.01,
 Gaussian 09:  ES64L-G09RevD.01 24-Apr-2013

 ---------------------------------
 #m062X/6-31+G(d) OPT Freq=noraman
 ---------------------------------

 ------------------------
 (E)-1,2-dichloroethylene
 ------------------------
 Symbolic Z-matrix:
 Charge =  0 Multiplicity = 1

 SCF Done:  E(RM062X) =  -997.677808943     A.U. after   11 cycles
 SCF Done:  E(RM062X) =  -997.678484660     A.U. after   10 cycles
 SCF Done:  E(RM062X) =  -997.678503036     A.U. after    9 cycles
 Optimization completed.
    -- Stationary point found.
 Normal termination of Gaussian 09 at Fri Mar 14 14:09:07 2025.

 ---------------------------------------------------------------------
 #N Geom=AllCheck Guess=TCheck SCRF=Check GenChk RM062X/6-31+G(d) Freq
 ---------------------------------------------------------------------

 Structure from the checkpoint file:  "/srv/scratch/z5358697/gauss/Gau-2169974.chk"
 ------------------------
 (E)-1,2-dichloroethylene
 ------------------------
 Charge =  0 Multiplicity = 1

                         Standard orientation:
 ---------------------------------------------------------------------
 Center     Atomic      Atomic             Coordinates (Angstroms)
 Number     Number       Type             X           Y           Z
 ---------------------------------------------------------------------
      1          6           0        0.493492   -0.443266    0.000155
      2          6           0       -0.493492    0.443273    0.000152
      3         17           0       -2.151001   -0.049886   -0.000057
      4         17           0        2.151001    0.049883   -0.000058
      5          1           0        0.337525   -1.515820    0.000052
      6          1           0       -0.337523    1.515824    0.000057
 ---------------------------------------------------------------------

 SCF Done:  E(RM062X) =  -997.678503036     A.U. after    1 cycles

 The electronic state is 1-A.
 Alpha  occ. eigenvalues -- -102.68874-102.68874 -10.63374 -10.63258  -9.83574
 Alpha  occ. eigenvalues --   -9.83574  -7.55992  -7.55992  -7.55303  -7.55303
 Alpha  occ. eigenvalues --   -7.55286  -7.55286  -1.01139  -0.97104  -0.83306
 Alpha  occ. eigenvalues --   -0.68389  -0.56501  -0.55738  -0.47460  -0.47146
 Alpha  occ. eigenvalues --   -0.42204  -0.39742  -0.39179  -0.31759
 Alpha virt. eigenvalues --    0.00372   0.01805   0.02492   0.03858   0.05063
 Alpha virt. eigenvalues --    0.06778   0.06805   0.09533   0.09693   0.10271
 Alpha virt. eigenvalues --    0.11288   0.11615   0.12833   0.13239   0.13674

 Mulliken charges:
               1
     1  C   -0.284838
     2  C   -0.284834
     3  Cl   0.018641
     4  Cl   0.018643
     5  H    0.266194
     6  H    0.266194
 Sum of Mulliken charges =   0.00000

 Dipole moment (field-independent basis, Debye):
    X=              0.0000    Y=              0.0000    Z=             -0.0001  Tot=              0.0001
 Quadrupole moment (field-independent basis, Debye-Ang):
   XX=            -40.4480   YY=            -34.3418   ZZ=            -38.9657
   XY=             -0.3324   XZ=              0.0000   YZ=              0.0000

  Exact polarizability:  74.824  -1.802  37.822   0.000   0.000  28.113
 Approx polarizability:  81.549  -3.266  45.424   0.000   0.000  32.220

                      1                      2                      3
                      A                      A                      A
 Frequencies --    213.6188               239.8165               358.8967
 Red. masses --      8.3147                 6.5559                19.4878
 Frc consts  --      0.2236                 0.2221                 1.4789
 IR Inten    --      0.2445                 3.7838                 0.0000

                      4                      5                      6
                      A                      A                      A
 Frequencies --    818.3302               856.7485               877.3495
 Red. masses --      1.8240                 9.4484                 4.5566
 Frc consts  --      0.7197                 4.0862                 2.0665
 IR Inten    --      0.0001               132.4353                 0.0000

                      7                      8                      9
                      A                      A                      A
 Frequencies --    951.5468              1243.1717              1320.2523
 Red. masses --      1.0853                 1.1060                 1.1859
 Frc consts  --      0.5790                 1.0071                 1.2179
 IR Inten    --     71.7268                21.9395                 0.0000

                     10                     11                     12
                      A                      A                      A
 Frequencies --   1696.4433              3255.2354              3258.8600
 Red. masses --      6.9623                 1.0861                 1.1031
 Frc consts  --     11.8055                 6.7810                 6.9022
 IR Inten    --      0.0000                18.8648                 0.0002

 - Thermochemistry -
 -------------------
 Temperature   298.150 Kelvin.  Pressure   1.00000 Atm.
 Atom     1 has atomic number  6 and mass  12.00000

 Molecular mass:    95.95336 amu.
 Principal axes and moments of inertia in atomic units:
                           1         2         3
     Eigenvalues --    33.983951177.263681211.24762
           X            0.99999  -0.00382   0.00000
           Y            0.00382   0.99999   0.00000
           Z            0.00000   0.00000   1.00000
 This molecule is an asymmetric top.
 Rotational symmetry number  1.
 Rotational temperatures (Kelvin)      2.54867     0.07357     0.07151
 Rotational constants (GHZ):          53.10569     1.53300     1.48999
 Zero-point vibrational energy      90259.9 (Joules/Mol)
                                   21.57262 (Kcal/Mol)
 Warning -- explicit consideration of   3 degrees of freedom as
           vibrations may cause significant error
 Vibrational temperatures:    307.35   345.04   516.37  1177.39  1232.67
          (Kelvin)           1262.31  1369.06  1788.64  1899.55  2440.80
                             4683.55  4688.77

 Zero-point correction=                           0.034378 (Hartree/Particle)
 Thermal correction to Energy=                    0.038869
 Thermal correction to Enthalpy=                  0.039814
 Thermal correction to Gibbs Free Energy=         0.006262
 Sum of electronic and zero-point Energies=           -997.644125
 Sum of electronic and thermal Energies=              -997.639634
 Sum of electronic and thermal Enthalpies=            -997.638689
 Sum of electronic and thermal Free Energies=         -997.672241

                     E (Thermal)             CV                S
                      KCal/Mol        Cal/Mol-Kelvin    Cal/Mol-Kelvin
 Total                   24.391             13.620             70.614
 Electronic               0.000              0.000              0.000
 Translational            0.889              2.981             39.595
 Rotational               0.889              2.981             25.386
 Vibrational             22.613              7.658              5.634
 Vibration     1          0.644              1.820              2.013
 Vibration     2          0.657              1.780              1.804
 Vibration     3          0.734              1.557              1.127

 Optimization completed.
    -- Stationary point found.
 Normal termination of Gaussian 09 at Fri Mar 14 14:09:34 2025.
