 Gaussian 09, Revision D.01,
 Gaussian 09:  ES64L-G09RevD.01 24-Apr-2013

 ---------------------------------
 #m062X/6-31+G(d) OPT Freq=noraman
 ---------------------------------

 -----------
 bromoethane
 -----------
 Symbolic Z-matrix:
 Charge =  0 Multiplicity = 1

 SCF Done:  E(RM062X) =  -2650.97015342     A.U. after   12 cycles
 SCF Done:  E(RM062X) =  -2650.97042150     A.U. after   10 cycles
 SCF Done:  E(RM062X) =  -2650.97043410     A.U. after    9 cycles
 Optimization completed.
    -- Stationary point found.
 Normal termination of Gaussian 09 at Wed Mar 19 12:19:44 2025.

 ---------------------------------------------------------------------
 #N Geom=AllCheck Guess=TCheck SCRF=Check GenChk RM062X/6-31+G(d) Freq
 ---------------------------------------------------------------------

 Structure from the checkpoint file:  "/srv/scratch/z5358697/gauss/Gau-3515397.chk"
 -----------
 bromoethane
 -----------
 Charge =  0 Multiplicity = 1

                         Standard orientation:
 ---------------------------------------------------------------------
 Center     Atomic      Atomic             Coordinates (Angstroms)
 Number     Number       Type             X           Y           Z
 ---------------------------------------------------------------------
      1          6           0       -2.069662   -0.398565    0.000000
      2          6           0       -1.012769    0.686401   -0.000002
      3         35           0        0.790183   -0.067425    0.000000
      4          1           0       -3.062271    0.066585    0.000000
      5          1           0       -1.983918   -1.031428   -0.886994
      6          1           0       -1.983923   -1.031423    0.886991
      7          1           0       -1.065859    1.314560    0.888635
      8          1           0       -1.065857    1.314567   -0.888630
 ---------------------------------------------------------------------

 SCF Done:  E(RM062X) =  -2650.97043410     A.U. after    1 cycles

 The electronic state is 1-A.
 Alpha  occ. eigenvalues -- -485.46188 -62.74424 -57.27723 -57.27466 -57.27460
 Alpha  occ. eigenvalues --  -10.61073 -10.55770  -8.91810  -6.87251  -6.86265
 Alpha  occ. eigenvalues --   -6.86255  -2.90104  -2.89767  -2.89759  -2.88886
 Alpha  occ. eigenvalues --   -2.88886  -0.91748  -0.81717  -0.70495  -0.54999
 Alpha  occ. eigenvalues --   -0.51490  -0.47207  -0.44244  -0.41363  -0.33333
 Alpha  occ. eigenvalues --   -0.33240
 Alpha virt. eigenvalues --    0.00792   0.02948   0.03932   0.05261   0.06219
 Alpha virt. eigenvalues --    0.07627   0.08362   0.08756   0.09298   0.09533
 Alpha virt. eigenvalues --    0.12726   0.14236   0.15826   0.22160   0.22951

 Mulliken charges:
               1
     1  C   -0.630237
     2  C   -0.421272
     3  Br  -0.116121
     4  H    0.213758
     5  H    0.231667
     6  H    0.231669
     7  H    0.245268
     8  H    0.245269
 Sum of Mulliken charges =   0.00000

 Dipole moment (field-independent basis, Debye):
    X=             -2.2072    Y=              0.7080    Z=              0.0000  Tot=              2.3179
 Quadrupole moment (field-independent basis, Debye-Ang):
   XX=            -30.5661   YY=            -32.0856   ZZ=            -32.6336
   XY=             -1.2355   XZ=              0.0000   YZ=              0.0000

  Exact polarizability:  53.367  -2.800  38.099   0.001   0.000  36.159
 Approx polarizability:  59.303  -5.553  45.438   0.000   0.000  43.689

                      1                      2                      3
                      A                      A                      A
 Frequencies --    242.3547               298.4074               592.5753
 Red. masses --      1.0780                 3.1583                 4.0854
 Frc consts  --      0.0373                 0.1657                 0.8452
 IR Inten    --      0.0091                 1.9686                17.3878

                      4                      5                      6
                      A                      A                      A
 Frequencies --    781.8825               994.6950              1065.8279
 Red. masses --      1.1093                 1.6237                 1.2141
 Frc consts  --      0.3996                 0.9465                 0.8126
 IR Inten    --      3.6027                15.9004                 0.2271

                      7                      8                      9
                      A                      A                      A
 Frequencies --   1101.7683              1285.7552              1318.3698
 Red. masses --      2.2595                 1.2164                 1.2491
 Frc consts  --      1.6160                 1.1848                 1.2792
 IR Inten    --      0.2596                 0.5403                59.2371

                     10                     11                     12
                      A                      A                      A
 Frequencies --   1434.8855              1508.0239              1513.5145
 Red. masses --      1.2460                 1.0364                 1.0965
 Frc consts  --      1.5115                 1.3887                 1.4799
 IR Inten    --      7.8300                10.9690                 1.1583

                     13                     14                     15
                      A                      A                      A
 Frequencies --   1518.2393              3075.4761              3145.8696
 Red. masses --      1.0536                 1.0381                 1.0816
 Frc consts  --      1.4308                 5.7852                 6.3066
 IR Inten    --      3.2463                16.5414                 0.1445

                     16                     17                     18
                      A                      A                      A
 Frequencies --   3157.8157              3169.5421              3216.1674
 Red. masses --      1.0743                 1.1043                 1.1108
 Frc consts  --      6.3115                 6.5365                 6.7696
 IR Inten    --     22.2373                 7.1316                 5.1166

 - Thermochemistry -
 -------------------
 Temperature   298.150 Kelvin.  Pressure   1.00000 Atm.
 Atom     1 has atomic number  6 and mass  12.00000

 Molecular mass:   107.95746 amu.
 Principal axes and moments of inertia in atomic units:
                           1         2         3
     Eigenvalues --    59.63047 476.52950 513.46571
           X            0.99993   0.01173   0.00000
           Y           -0.01173   0.99993   0.00000
           Z            0.00000   0.00000   1.00000
 This molecule is an asymmetric top.
 Rotational symmetry number  1.
 Rotational temperatures (Kelvin)      1.45251     0.18176     0.16868
 Rotational constants (GHZ):          30.26542     3.78726     3.51482
 Zero-point vibrational energy     175977.7 (Joules/Mol)
                                   42.05967 (Kcal/Mol)
 Warning -- explicit consideration of   3 degrees of freedom as
           vibrations may cause significant error
 Vibrational temperatures:    348.69   429.34   852.58  1124.95  1431.14
          (Kelvin)           1533.49  1585.20  1849.91  1896.84  2064.48
                             2169.71  2177.61  2184.41  4424.92  4526.20
                             4543.39  4560.26  4627.34

 Zero-point correction=                           0.067026 (Hartree/Particle)
 Thermal correction to Energy=                    0.071160
 Thermal correction to Enthalpy=                  0.072104
 Thermal correction to Gibbs Free Energy=         0.039620
 Sum of electronic and zero-point Energies=          -2650.903408
 Sum of electronic and thermal Energies=             -2650.899274
 Sum of electronic and thermal Enthalpies=           -2650.898330
 Sum of electronic and thermal Free Energies=        -2650.930814

                     E (Thermal)             CV                S
                      KCal/Mol        Cal/Mol-Kelvin    Cal/Mol-Kelvin
 Total                   44.653             12.718             68.368
 Electronic               0.000              0.000              0.000
 Translational            0.889              2.981             39.946
 Rotational               0.889              2.981             24.193
 Vibrational             42.876              6.756              4.229
 Vibration     1          0.659              1.775              1.786
 Vibration     2          0.691              1.677              1.426
 Vibration     3          0.950              1.048              0.463

 Normal termination of Gaussian 09 at Wed Mar 19 12:20:21 2025.
