 Gaussian 09, Revision D.01,
 Gaussian 09:  ES64L-G09RevD.01 24-Apr-2013

 ---------------------------------
 #m062X/6-31+G(d) OPT Freq=noraman
 ---------------------------------

 -------------------------------
 (2R)-1,1,1-trifluoropropan-2-ol
 -------------------------------
 Symbolic Z-matrix:
 Charge =  0 Multiplicity = 1

 SCF Done:  E(RM062X) =  -491.918273646     A.U. after   12 cycles
 SCF Done:  E(RM062X) =  -491.920539958     A.U. after   11 cycles
 SCF Done:  E(RM062X) =  -491.920723774     A.U. after    9 cycles
 SCF Done:  E(RM062X) =  -491.920740047     A.U. after    9 cycles
 SCF Done:  E(RM062X) =  -491.920744119     A.U. after    8 cycles
 SCF Done:  E(RM062X) =  -491.920745642     A.U. after    8 cycles
 SCF Done:  E(RM062X) =  -491.920746675     A.U. after    9 cycles
 SCF Done:  E(RM062X) =  -491.920747589     A.U. after    9 cycles
 SCF Done:  E(RM062X) =  -491.920749178     A.U. after    9 cycles
 SCF Done:  E(RM062X) =  -491.920751276     A.U. after    9 cycles
 SCF Done:  E(RM062X) =  -491.920752008     A.U. after    9 cycles
 SCF Done:  E(RM062X) =  -491.920751900     A.U. after    9 cycles
 Optimization completed.
    -- Stationary point found.
 Normal termination of Gaussian 09 at Fri Mar 21 00:17:56 2025.

 ---------------------------------------------------------------------
 #N Geom=AllCheck Guess=TCheck SCRF=Check GenChk RM062X/6-31+G(d) Freq
 ---------------------------------------------------------------------

 Structure from the checkpoint file:  "/srv/scratch/z5358697/gauss/Gau-3815408.chk"
 -------------------------------
 (2R)-1,1,1-trifluoropropan-2-ol
 -------------------------------
 Charge =  0 Multiplicity = 1

                         Standard orientation:
 ---------------------------------------------------------------------
 Center     Atomic      Atomic             Coordinates (Angstroms)
 Number     Number       Type             X           Y           Z
 ---------------------------------------------------------------------
      1          6           0        1.645287    1.080174    0.036574
      2          6           0        0.820243   -0.101383   -0.452796
      3          1           0        0.794410   -0.129773   -1.551872
      4          6           0       -0.630729    0.024571   -0.012783
      5          9           0       -1.173674    1.145504   -0.528540
      6          9           0       -1.369021   -1.008012   -0.435310
      7          9           0       -0.751887    0.096438    1.319096
      8          8           0        1.259871   -1.331263    0.075772
      9          1           0        1.646021    1.109723    1.129408
     10          1           0        1.251983    2.023967   -0.350350
     11          1           0        2.677821    0.976167   -0.312055
     12          1           0        2.193226   -1.455515   -0.144491
 ---------------------------------------------------------------------

 SCF Done:  E(RM062X) =  -491.920751900     A.U. after    1 cycles

 The electronic state is 1-A.
 Alpha  occ. eigenvalues --  -25.30217 -25.29937 -25.29787 -19.67426 -10.80648
 Alpha  occ. eigenvalues --  -10.63956 -10.56544  -1.46699  -1.37433  -1.37305
 Alpha  occ. eigenvalues --   -1.18163  -0.90799  -0.81928  -0.75013  -0.69602
 Alpha  occ. eigenvalues --   -0.69005  -0.64505  -0.61500  -0.57448  -0.56857
 Alpha  occ. eigenvalues --   -0.54459  -0.52944  -0.52167  -0.51163  -0.50981
 Alpha  occ. eigenvalues --   -0.47631  -0.46086  -0.42580  -0.37965
 Alpha virt. eigenvalues --    0.00443   0.03349   0.03863   0.04755   0.07219
 Alpha virt. eigenvalues --    0.07343   0.07639   0.08025   0.09893   0.11189
 Alpha virt. eigenvalues --    0.12750   0.14641   0.16768   0.19183   0.19755

 Mulliken charges:
               1
     1  C   -0.695136
     2  C   -0.116035
     3  H    0.218207
     4  C    0.982613
     5  F   -0.319717
     6  F   -0.304970
     7  F   -0.311321
     8  O   -0.656510
     9  H    0.255121
    10  H    0.244488
    11  H    0.211156
    12  H    0.492104
 Sum of Mulliken charges =   0.00000

 Dipole moment (field-independent basis, Debye):
    X=              3.4334    Y=              0.9858    Z=             -1.3589  Tot=              3.8219
 Quadrupole moment (field-independent basis, Debye-Ang):
   XX=            -34.8601   YY=            -42.0395   ZZ=            -40.2992
   XY=             -0.8259   XZ=             -1.8543   YZ=              1.0237

  Exact polarizability:  43.402   0.246  42.910   0.568  -0.378  39.265
 Approx polarizability:  45.321  -0.668  47.441   0.729  -1.087  46.005

                      1                      2                      3
                      A                      A                      A
 Frequencies --     81.1464               184.6904               223.4841
 Red. masses --      5.1408                 1.0602                 2.1747
 Frc consts  --      0.0199                 0.0213                 0.0640
 IR Inten    --      7.1010               136.3213                 1.2002

                      4                      5                      6
                      A                      A                      A
 Frequencies --    230.5376               264.5848               348.7384
 Red. masses --      1.6293                 4.7752                 4.6122
 Frc consts  --      0.0510                 0.1970                 0.3305
 IR Inten    --      0.8140                 4.8794                 0.6190

                      7                      8                      9
                      A                      A                      A
 Frequencies --    421.2878               486.4415               550.6622
 Red. masses --      8.7688                 4.6827                 6.1222
 Frc consts  --      0.9170                 0.6528                 1.0938
 IR Inten    --      1.6620                 9.9936                11.5293

                     10                     11                     12
                      A                      A                      A
 Frequencies --    583.8224               668.7136               818.4510
 Red. masses --     10.7859                 4.3559                 4.7488
 Frc consts  --      2.1661                 1.1476                 1.8742
 IR Inten    --      0.9178                21.6836                 0.8659

                     13                     14                     15
                      A                      A                      A
 Frequencies --    941.1940              1034.7213              1134.4006
 Red. masses --      2.0507                 1.4294                 2.2635
 Frc consts  --      1.0703                 0.9017                 1.7162
 IR Inten    --     17.2749                27.7028                58.7950

                     16                     17                     18
                      A                      A                      A
 Frequencies --   1185.4270              1194.6349              1259.3389
 Red. masses --      2.0579                 3.0033                 6.7066
 Frc consts  --      1.7038                 2.5253                 6.2667
 IR Inten    --    256.7817                64.3848               278.4096

                     19                     20                     21
                      A                      A                      A
 Frequencies --   1269.1807              1339.8482              1379.2017
 Red. masses --      2.5312                 2.5790                 1.3336
 Frc consts  --      2.4023                 2.7278                 1.4946
 IR Inten    --     59.3321               137.2967                10.8210

                     22                     23                     24
                      A                      A                      A
 Frequencies --   1435.7897              1475.4982              1515.6874
 Red. masses --      1.3241                 1.6576                 1.0439
 Frc consts  --      1.6083                 2.1262                 1.4129
 IR Inten    --     12.5320                14.1579                 3.5015

                     25                     26                     27
                      A                      A                      A
 Frequencies --   1535.9634              3074.3852              3085.0645
 Red. masses --      1.3109                 1.0847                 1.0375
 Frc consts  --      1.8222                 6.0405                 5.8179
 IR Inten    --     34.7407                28.7836                10.6101

                     28                     29                     30
                      A                      A                      A
 Frequencies --   3161.1316              3186.0318              3836.1606
 Red. masses --      1.1008                 1.1035                 1.0670
 Frc consts  --      6.4811                 6.5995                 9.2512
 IR Inten    --     11.2595                 6.5787                51.3468

 - Thermochemistry -
 -------------------
 Temperature   298.150 Kelvin.  Pressure   1.00000 Atm.
 Atom     1 has atomic number  6 and mass  12.00000

 Molecular mass:   114.02925 amu.
 Principal axes and moments of inertia in atomic units:
                           1         2         3
     Eigenvalues --   512.58507 741.85413 908.44104
           X            0.99805   0.06133  -0.01169
           Y           -0.06118   0.99804   0.01297
           Z            0.01246  -0.01223   0.99985
 This molecule is an asymmetric top.
 Rotational symmetry number  1.
 Warning -- assumption of classical behavior for rotation
           may cause significant error
 Rotational temperatures (Kelvin)      0.16897     0.11675     0.09534
 Rotational constants (GHZ):           3.52086     2.43274     1.98664
 Zero-point vibrational energy     226729.5 (Joules/Mol)
                                   54.18966 (Kcal/Mol)
 Warning -- explicit consideration of  10 degrees of freedom as
           vibrations may cause significant error
 Vibrational temperatures:    116.75   265.73   321.54   331.69   380.68
          (Kelvin)            501.76   606.14   699.88   792.28   839.99
                              962.13  1177.57  1354.17  1488.73  1632.15
                             1705.56  1718.81  1811.91  1826.07  1927.74
                             1984.36  2065.78  2122.91  2180.73  2209.91
                             4423.35  4438.71  4548.16  4583.98  5519.37

 Zero-point correction=                           0.086357 (Hartree/Particle)
 Thermal correction to Energy=                    0.093694
 Thermal correction to Enthalpy=                  0.094638
 Thermal correction to Gibbs Free Energy=         0.054806
 Sum of electronic and zero-point Energies=           -491.834395
 Sum of electronic and thermal Energies=              -491.827058
 Sum of electronic and thermal Enthalpies=            -491.826113
 Sum of electronic and thermal Free Energies=         -491.865946

                     E (Thermal)             CV                S
                      KCal/Mol        Cal/Mol-Kelvin    Cal/Mol-Kelvin
 Total                   58.794             25.470             83.835
 Electronic               0.000              0.000              0.000
 Translational            0.889              2.981             40.109
 Rotational               0.889              2.981             27.337
 Vibrational             57.017             19.508             16.388
 Vibration     1          0.600              1.962              3.863
 Vibration     2          0.631              1.861              2.280
 Vibration     3          0.649              1.805              1.931
 Vibration     4          0.652              1.794              1.875
 Vibration     5          0.671              1.738              1.631
 Vibration     6          0.726              1.578              1.172
 Vibration     7          0.784              1.424              0.888
 Vibration     8          0.842              1.280              0.693
 Vibration     9          0.906              1.138              0.543
 Vibration    10          0.941              1.066              0.478

 Optimization completed.
    -- Stationary point found.
 Normal termination of Gaussian 09 at Fri Mar 21 00:20:53 2025.
