 Gaussian 09, Revision D.01,
 Gaussian 09:  ES64L-G09RevD.01 24-Apr-2013

 ---------------------------------
 #m062X/6-31+G(d) OPT Freq=noraman
 ---------------------------------

 ------------
 methanethiol
 ------------
 Symbolic Z-matrix:
 Charge =  0 Multiplicity = 1

 SCF Done:  E(RM062X) =  -438.628659686     A.U. after   10 cycles
 SCF Done:  E(RM062X) =  -438.629225503     A.U. after   10 cycles
 SCF Done:  E(RM062X) =  -438.629249360     A.U. after    8 cycles
 SCF Done:  E(RM062X) =  -438.629250515     A.U. after    8 cycles
 Optimization completed.
    -- Stationary point found.

 1\1\GINC-KATANA1\FOpt\RM062X\6-31+G(d)\C1H4S1\Z5358697\11-Mar-2025\0\\
 #m062X/6-31+G(d) OPT Freq=noraman\\methanethiol\\0,1\C,0.2938178357,0.
 8113961926,0.6485339867\S,-0.43491429,2.3734414739,0.0590174527\H,-0.1
 049035616,0.6441852056,1.6507539344\H,1.3809887615,0.8774493639,0.7130
 631966\H,0.0048469651,-0.028214816,0.0144832917\H,0.1689642894,2.38154
 25801,-1.1409518621\\Version=ES64L-G09RevD.01\State=1-A\HF=-438.629250
 5\RMSD=5.740e-09\RMSF=4.763e-05\Dipole=0.4202747,-0.5405538,-0.1270835
 \Quadrupole=-0.9490557,-0.3580075,1.3070632,-0.2014775,-0.728734,-1.02

 Normal termination of Gaussian 09 at Tue Mar 11 10:47:42 2025.

 ---------------------------------------------------------------------
 #N Geom=AllCheck Guess=TCheck SCRF=Check GenChk RM062X/6-31+G(d) Freq
 ---------------------------------------------------------------------

 Structure from the checkpoint file:  "/srv/scratch/z5358697/com/Gau-2881251.chk"
 ------------
 methanethiol
 ------------
 Charge =  0 Multiplicity = 1

                         Standard orientation:
 ---------------------------------------------------------------------
 Center     Atomic      Atomic             Coordinates (Angstroms)
 Number     Number       Type             X           Y           Z
 ---------------------------------------------------------------------
      1          6           0        1.155302    0.018992    0.000000
      2         16           0       -0.663329   -0.086590    0.000000
      3          1           0        1.523676   -1.008473    0.000038
      4          1           0        1.525939    0.521606    0.894692
      5          1           0        1.525957    0.521542   -0.894723
      6          1           0       -0.894117    1.236814   -0.000002
 ---------------------------------------------------------------------

 SCF Done:  E(RM062X) =  -438.629250515     A.U. after    1 cycles

 The electronic state is 1-A.
 Alpha  occ. eigenvalues --  -89.91811 -10.57758  -8.26549  -6.18635  -6.18393
 Alpha  occ. eigenvalues --   -6.17915  -0.87619  -0.73309  -0.51946  -0.50048
 Alpha  occ. eigenvalues --   -0.45347  -0.39182  -0.29399
 Alpha virt. eigenvalues --    0.01569   0.03484   0.05895   0.06559   0.07238
 Alpha virt. eigenvalues --    0.09124   0.09979   0.11512   0.15173   0.16068
 Alpha virt. eigenvalues --    0.20982   0.21797   0.33843   0.50500   0.50942

 Mulliken charges:
               1
     1  C   -0.788393
     2  S   -0.033046
     3  H    0.241689
     4  H    0.238762
     5  H    0.238762
     6  H    0.102225
 Sum of Mulliken charges =   0.00000

 Dipole moment (field-independent basis, Debye):
    X=              1.4440    Y=              1.0237    Z=              0.0000  Tot=              1.7701
 Quadrupole moment (field-independent basis, Debye-Ang):
   XX=            -20.4771   YY=            -19.5091   ZZ=            -22.9218
   XY=             -1.5172   XZ=              0.0000   YZ=              0.0000

  Exact polarizability:  35.891  -0.921  27.403   0.000   0.000  27.381
 Approx polarizability:  37.099  -1.691  31.316   0.000   0.000  29.020

 ******    1 imaginary frequencies (negative Signs) ******

                      1                      2                      3
                      A                      A                      A
 Frequencies --   -172.4609               739.0276               800.6948
 Red. masses --      1.0297                 3.3922                 1.1962
 Frc consts  --      0.0180                 1.0916                 0.4518
 IR Inten    --     20.5045                 2.4767                 1.4249

                      4                      5                      6
                      A                      A                      A
 Frequencies --    988.0889              1110.1409              1395.9203
 Red. masses --      1.1809                 1.2344                 1.1561
 Frc consts  --      0.6793                 0.8963                 1.3272
 IR Inten    --      6.1971                23.6128                 7.5221

                      7                      8                      9
                      A                      A                      A
 Frequencies --   1501.0507              1512.4574              2748.7805
 Red. masses --      1.0514                 1.0486                 1.0388
 Frc consts  --      1.3958                 1.4132                 4.6244
 IR Inten    --      6.3604                 9.5525                14.6881

                     10                     11                     12
                      A                      A                      A
 Frequencies --   3098.0880              3187.8388              3192.0346
 Red. masses --      1.0307                 1.1083                 1.1041
 Frc consts  --      5.8286                 6.6358                 6.6282
 IR Inten    --     23.4756                 5.2307                 4.6037

 - Thermochemistry -
 -------------------
 Temperature   298.150 Kelvin.  Pressure   1.00000 Atm.
 Atom     1 has atomic number  6 and mass  12.00000

 Molecular mass:    48.00337 amu.
 Principal axes and moments of inertia in atomic units:
                           1         2         3
     Eigenvalues --    17.54650 140.29971 146.32215
           X            0.99962  -0.02752   0.00000
           Y            0.02752   0.99962   0.00000
           Z            0.00000   0.00000   1.00000
 This molecule is an asymmetric top.
 Rotational symmetry number  1.
 Rotational temperatures (Kelvin)      4.93625     0.61735     0.59194
 Rotational constants (GHZ):         102.85480    12.86347    12.33403
    1 imaginary frequencies ignored.
 Zero-point vibrational energy     121266.2 (Joules/Mol)
                                   28.98331 (Kcal/Mol)
 Vibrational temperatures:   1063.29  1152.02  1421.64  1597.24  2008.42
          (Kelvin)           2159.67  2176.09  3954.88  4457.45  4586.58
                             4592.62

 Zero-point correction=                           0.046188 (Hartree/Particle)
 Thermal correction to Energy=                    0.049276
 Thermal correction to Enthalpy=                  0.050220
 Thermal correction to Gibbs Free Energy=         0.022323
 Sum of electronic and zero-point Energies=           -438.583063
 Sum of electronic and thermal Energies=              -438.579974
 Sum of electronic and thermal Enthalpies=            -438.579030
 Sum of electronic and thermal Free Energies=         -438.606927

                     E (Thermal)             CV                S
                      KCal/Mol        Cal/Mol-Kelvin    Cal/Mol-Kelvin
 Total                   30.921              8.284             58.715
 Electronic               0.000              0.000              0.000
 Translational            0.889              2.981             37.530
 Rotational               0.889              2.981             20.516
 Vibrational             29.144              2.322              0.669

 Optimization completed.
    -- Stationary point found.

 1\1\GINC-KATANA1\Freq\RM062X\6-31+G(d)\C1H4S1\Z5358697\11-Mar-2025\0\\
 #N Geom=AllCheck Guess=TCheck SCRF=Check GenChk RM062X/6-31+G(d) Freq\
 \methanethiol\\0,1\C,0.2938178357,0.8113961926,0.6485339867\S,-0.43491
 429,2.3734414739,0.0590174527\H,-0.1049035616,0.6441852056,1.650753934
 4\H,1.3809887615,0.8774493639,0.7130631966\H,0.0048469651,-0.028214816
 ,0.0144832917\H,0.1689642894,2.3815425801,-1.1409518621\\Version=ES64L
 -G09RevD.01\State=1-A\HF=-438.6292505\RMSD=9.391e-10\RMSF=4.763e-05\Ze
 roPoint=0.0461878\Thermal=0.0492762\Dipole=0.4202747,-0.5405537,-0.127

 Normal termination of Gaussian 09 at Tue Mar 11 10:47:57 2025.
