 Gaussian 09, Revision D.01,
 Gaussian 09:  ES64L-G09RevD.01 24-Apr-2013

 ---------------------------------
 #m062X/6-31+G(d) OPT Freq=noraman
 ---------------------------------

 -------------------
 N-methylmethanamine
 -------------------
 Symbolic Z-matrix:
 Charge =  0 Multiplicity = 1

 SCF Done:  E(RM062X) =  -135.087380338     A.U. after   11 cycles
 SCF Done:  E(RM062X) =  -135.089052280     A.U. after   10 cycles
 SCF Done:  E(RM062X) =  -135.089172936     A.U. after    9 cycles
 SCF Done:  E(RM062X) =  -135.089218019     A.U. after    9 cycles
 SCF Done:  E(RM062X) =  -135.089221696     A.U. after    9 cycles
 SCF Done:  E(RM062X) =  -135.089222282     A.U. after    8 cycles
 Optimization completed.
    -- Stationary point found.

 1\1\GINC-KATANA2\FOpt\RM062X\6-31+G(d)\C2H7N1\Z5358697\11-Mar-2025\0\\
 #m062X/6-31+G(d) OPT Freq=noraman\\N-methylmethanamine\\0,1\C,1.024391
 4373,0.1144123786,0.3430069146\N,1.0374293525,0.3069616447,1.783730278
 5\C,2.386490713,0.4404763832,2.3080817835\H,-0.0025430841,-0.035169324
 6,-0.0012299705\H,1.6384258096,-0.7392011988,0.0044208596\H,1.41217309
 91,1.0176130775,-0.1406447621\H,0.566810394,-0.4700804272,2.238772382\
 H,2.3533425847,0.5287474462,3.3973962813\H,2.8341759919,1.3579611192,1
 .9106939404\H,3.050803702,-0.4011210988,2.0419722927\\Version=ES64L-G0

 Normal termination of Gaussian 09 at Tue Mar 11 10:53:37 2025.

 ---------------------------------------------------------------------
 #N Geom=AllCheck Guess=TCheck SCRF=Check GenChk RM062X/6-31+G(d) Freq
 ---------------------------------------------------------------------

 Structure from the checkpoint file:  "/srv/scratch/z5358697/com/Gau-2381.chk"
 -------------------
 N-methylmethanamine
 -------------------
 Charge =  0 Multiplicity = 1

                         Standard orientation:
 ---------------------------------------------------------------------
 Center     Atomic      Atomic             Coordinates (Angstroms)
 Number     Number       Type             X           Y           Z
 ---------------------------------------------------------------------
      1          6           0       -1.206578   -0.224392    0.020565
      2          7           0        0.000009    0.568339   -0.148713
      3          6           0        1.206543   -0.224353    0.020558
      4          1           0       -2.086781    0.419094   -0.060892
      5          1           0       -1.251033   -0.763663    0.983657
      6          1           0       -1.259492   -0.968413   -0.781743
      7          1           0       -0.000086    1.340118    0.512117
      8          1           0        2.086810    0.419074   -0.060864
      9          1           0        1.259618   -0.968454   -0.781697
     10          1           0        1.251111   -0.763653    0.983669
 ---------------------------------------------------------------------

 SCF Done:  E(RM062X) =  -135.089222282     A.U. after    1 cycles

 The electronic state is 1-A.
 Alpha  occ. eigenvalues --  -14.74744 -10.56140 -10.56138  -1.00744  -0.79308
 Alpha  occ. eigenvalues --   -0.71503  -0.56301  -0.51546  -0.50179  -0.45176
 Alpha  occ. eigenvalues --   -0.42889  -0.42396  -0.28612
 Alpha virt. eigenvalues --    0.02476   0.04327   0.04684   0.05550   0.07559
 Alpha virt. eigenvalues --    0.07685   0.09259   0.13077   0.14928   0.17638
 Alpha virt. eigenvalues --    0.21675   0.23587   0.24157   0.25150   0.25656

 Mulliken charges:
               1
     1  C   -0.496169
     2  N   -0.540025
     3  C   -0.496190
     4  H    0.200323
     5  H    0.175916
     6  H    0.202685
     7  H    0.374555
     8  H    0.200324
     9  H    0.202683
    10  H    0.175898
 Sum of Mulliken charges =   0.00000

 Dipole moment (field-independent basis, Debye):
    X=             -0.0002    Y=             -0.2249    Z=              1.1223  Tot=              1.1446
 Quadrupole moment (field-independent basis, Debye-Ang):
   XX=            -19.8874   YY=            -20.8449   ZZ=            -22.2269
   XY=             -0.0004   XZ=             -0.0002   YZ=              2.3400

  Exact polarizability:  36.618  -0.001  32.828   0.000  -1.049  31.439
 Approx polarizability:  35.194  -0.001  35.809   0.000  -0.762  34.442

                      1                      2                      3
                      A                      A                      A
 Frequencies --    212.3910               264.6086               393.5494
 Red. masses --      1.0338                 1.1994                 2.1636
 Frc consts  --      0.0275                 0.0495                 0.1974
 IR Inten    --      0.1670                 2.9509                 6.3825

                      4                      5                      6
                      A                      A                      A
 Frequencies --    789.2322               969.5663              1041.6209
 Red. masses --      1.2206                 2.3889                 1.1659
 Frc consts  --      0.4479                 1.3231                 0.7453
 IR Inten    --    131.5633                 7.3199                 8.4849

                      7                      8                      9
                      A                      A                      A
 Frequencies --   1110.6630              1197.3437              1213.2502
 Red. masses --      1.2592                 1.4836                 3.7794
 Frc consts  --      0.9152                 1.2532                 3.2778
 IR Inten    --      0.3792                11.1562                32.2105

                     10                     11                     12
                      A                      A                      A
 Frequencies --   1278.0833              1454.5399              1485.3953
 Red. masses --      1.7365                 1.1684                 1.2016
 Frc consts  --      1.6713                 1.4565                 1.5621
 IR Inten    --      0.4960                 0.2363                 1.0180

                     13                     14                     15
                      A                      A                      A
 Frequencies --   1496.0341              1511.7119              1522.5384
 Red. masses --      1.1989                 1.0548                 1.0525
 Frc consts  --      1.5810                 1.4203                 1.4375
 IR Inten    --      9.6923                 1.9217                14.4181

                     16                     17                     18
                      A                      A                      A
 Frequencies --   1536.5773              1540.3704              2997.9982
 Red. masses --      1.0707                 1.0409                 1.0553
 Frc consts  --      1.4895                 1.4551                 5.5886
 IR Inten    --     19.0052                 2.4903                50.8287

                     19                     20                     21
                      A                      A                      A
 Frequencies --   2999.2767              3103.4847              3105.7605
 Red. masses --      1.0571                 1.0769                 1.0795
 Frc consts  --      5.6027                 6.1109                 6.1348
 IR Inten    --    143.5273                49.1558                20.0365

                     22                     23                     24
                      A                      A                      A
 Frequencies --   3155.5361              3155.7746              3544.8546
 Red. masses --      1.1016                 1.1022                 1.0750
 Frc consts  --      6.4626                 6.4673                 7.9589
 IR Inten    --     28.9180                24.1580                 0.9080

 - Thermochemistry -
 -------------------
 Temperature   298.150 Kelvin.  Pressure   1.00000 Atm.
 Atom     1 has atomic number  6 and mass  12.00000

 Molecular mass:    45.05785 amu.
 Principal axes and moments of inertia in atomic units:
                           1         2         3
     Eigenvalues --    52.44063 192.03685 218.00404
           X            1.00000  -0.00001   0.00000
           Y            0.00001   0.99633   0.08555
           Z            0.00000  -0.08555   0.99633
 This molecule is an asymmetric top.
 Rotational symmetry number  1.
 Rotational temperatures (Kelvin)      1.65165     0.45103     0.39730
 Rotational constants (GHZ):          34.41494     9.39789     8.27848
 Zero-point vibrational energy     245713.9 (Joules/Mol)
                                   58.72704 (Kcal/Mol)
 Warning -- explicit consideration of   3 degrees of freedom as
           vibrations may cause significant error
 Vibrational temperatures:    305.58   380.71   566.23  1135.53  1394.99
          (Kelvin)           1498.66  1597.99  1722.71  1745.59  1838.87
                             2092.76  2137.15  2152.46  2175.01  2190.59
                             2210.79  2216.25  4313.45  4315.28  4465.22
                             4468.49  4540.11  4540.45  5100.25

 Zero-point correction=                           0.093587 (Hartree/Particle)
 Thermal correction to Energy=                    0.098001
 Thermal correction to Enthalpy=                  0.098945
 Thermal correction to Gibbs Free Energy=         0.068087
 Sum of electronic and zero-point Energies=           -134.995635
 Sum of electronic and thermal Energies=              -134.991222
 Sum of electronic and thermal Enthalpies=            -134.990277
 Sum of electronic and thermal Free Energies=         -135.021136

                     E (Thermal)             CV                S
                      KCal/Mol        Cal/Mol-Kelvin    Cal/Mol-Kelvin
 Total                   61.496             13.768             64.946
 Electronic               0.000              0.000              0.000
 Translational            0.889              2.981             37.342
 Rotational               0.889              2.981             22.311
 Vibrational             59.719              7.807              5.293
 Vibration     1          0.643              1.822              2.023
 Vibration     2          0.671              1.738              1.631
 Vibration     3          0.761              1.484              0.987

 Optimization completed.
    -- Stationary point found.

 1\1\GINC-KATANA2\Freq\RM062X\6-31+G(d)\C2H7N1\Z5358697\11-Mar-2025\0\\
 #N Geom=AllCheck Guess=TCheck SCRF=Check GenChk RM062X/6-31+G(d) Freq\
 \N-methylmethanamine\\0,1\C,1.0243914373,0.1144123786,0.3430069146\N,1
 .0374293525,0.3069616447,1.7837302785\C,2.386490713,0.4404763832,2.308
 0817835\H,-0.0025430841,-0.0351693246,-0.0012299705\H,1.6384258096,-0.
 7392011988,0.0044208596\H,1.4121730991,1.0176130775,-0.1406447621\H,0.
 566810394,-0.4700804272,2.238772382\H,2.3533425847,0.5287474462,3.3973
 962813\H,2.8341759919,1.3579611192,1.9106939404\H,3.050803702,-0.40112

 Normal termination of Gaussian 09 at Tue Mar 11 10:54:17 2025.
