 Gaussian 09, Revision D.01,
 Gaussian 09:  ES64L-G09RevD.01 24-Apr-2013

 ---------------------------------
 #m062X/6-31+G(d) OPT Freq=noraman
 ---------------------------------

 --------
 ethylene
 --------
 Symbolic Z-matrix:
 Charge =  0 Multiplicity = 1

 SCF Done:  E(RM062X) =  -78.5410997807     A.U. after    9 cycles
 SCF Done:  E(RM062X) =  -78.5412643720     A.U. after    8 cycles
 SCF Done:  E(RM062X) =  -78.5412831350     A.U. after    7 cycles
 Optimization completed.
    -- Stationary point found.
 Normal termination of Gaussian 09 at Tue Mar 11 10:45:36 2025.

 ---------------------------------------------------------------------
 #N Geom=AllCheck Guess=TCheck SCRF=Check GenChk RM062X/6-31+G(d) Freq
 ---------------------------------------------------------------------

 Structure from the checkpoint file:  "/srv/scratch/z5358697/com/Gau-4191296.chk"
 --------
 ethylene
 --------
 Charge =  0 Multiplicity = 1

                         Standard orientation:
 ---------------------------------------------------------------------
 Center     Atomic      Atomic             Coordinates (Angstroms)
 Number     Number       Type             X           Y           Z
 ---------------------------------------------------------------------
      1          6           0        0.665201   -0.000001   -0.000032
      2          6           0       -0.665200    0.000000   -0.000030
      3          1           0        1.235289   -0.924897    0.000091
      4          1           0        1.235293    0.924895    0.000099
      5          1           0       -1.235289    0.924897    0.000088
      6          1           0       -1.235294   -0.924895    0.000097
 ---------------------------------------------------------------------

 SCF Done:  E(RM062X) =  -78.5412831350     A.U. after    1 cycles

 The electronic state is 1-A.
 Alpha  occ. eigenvalues --  -10.55163 -10.55050  -0.85989  -0.66387  -0.54242
 Alpha  occ. eigenvalues --   -0.48548  -0.41928  -0.33310
 Alpha virt. eigenvalues --    0.02868   0.04338   0.04492   0.06216   0.08430
 Alpha virt. eigenvalues --    0.09456   0.10170   0.14360   0.17308   0.22245
 Alpha virt. eigenvalues --    0.23298   0.28741   0.39038   0.39344   0.61795

 Mulliken charges:
               1
     1  C   -0.391478
     2  C   -0.391478
     3  H    0.195739
     4  H    0.195739
     5  H    0.195739
     6  H    0.195739
 Sum of Mulliken charges =   0.00000

 Dipole moment (field-independent basis, Debye):
    X=              0.0000    Y=              0.0000    Z=              0.0004  Tot=              0.0004
 Quadrupole moment (field-independent basis, Debye-Ang):
   XX=            -12.2541   YY=            -12.3490   ZZ=            -15.9855
   XY=              0.0000   XZ=              0.0000   YZ=              0.0000

  Exact polarizability:  33.839   0.000  20.938   0.000   0.000  16.675
 Approx polarizability:  39.369   0.000  21.455   0.000   0.000  16.958

                      1                      2                      3
                      A                      A                      A
 Frequencies --    837.2804               997.7446               998.7089
 Red. masses --      1.0424                 1.1607                 1.5178
 Frc consts  --      0.4306                 0.6808                 0.8919
 IR Inten    --      0.7884               126.0934                 0.0002

                      4                      5                      6
                      A                      A                      A
 Frequencies --   1069.4247              1243.1522              1395.6823
 Red. masses --      1.0078                 1.5225                 1.2124
 Frc consts  --      0.6791                 1.3863                 1.3914
 IR Inten    --      0.0000                 0.0000                 0.0000

                      7                      8                      9
                      A                      A                      A
 Frequencies --   1486.7961              1725.3590              3177.5497
 Red. masses --      1.1120                 3.1988                 1.0477
 Frc consts  --      1.4483                 5.6103                 6.2327
 IR Inten    --      7.8395                 0.0000                11.2728

                     10                     11                     12
                      A                      A                      A
 Frequencies --   3193.5388              3255.1271              3279.2032
 Red. masses --      1.0749                 1.1159                 1.1180
 Frc consts  --      6.4588                 6.9665                 7.0832
 IR Inten    --      0.0000                 0.0000                20.6331

 - Thermochemistry -
 -------------------
 Temperature   298.150 Kelvin.  Pressure   1.00000 Atm.
 Atom     1 has atomic number  6 and mass  12.00000

 Molecular mass:    28.03130 amu.
 Principal axes and moments of inertia in atomic units:
                           1         2         3
     Eigenvalues --    12.31484  59.89154  72.20638
           X            1.00000   0.00000   0.00000
           Y            0.00000   1.00000   0.00000
           Z            0.00000   0.00000   1.00000
 This molecule is an asymmetric top.
 Rotational symmetry number  1.
 Rotational temperatures (Kelvin)      7.03329     1.44618     1.19953
 Rotational constants (GHZ):         146.55013    30.13349    24.99421
 Zero-point vibrational energy     135534.3 (Joules/Mol)
                                   32.39348 (Kcal/Mol)
 Vibrational temperatures:   1204.66  1435.53  1436.92  1538.66  1788.62
          (Kelvin)           2008.07  2139.17  2482.40  4571.78  4594.78
                             4683.40  4718.04

 Zero-point correction=                           0.051622 (Hartree/Particle)
 Thermal correction to Energy=                    0.054654
 Thermal correction to Enthalpy=                  0.055598
 Thermal correction to Gibbs Free Energy=         0.029442
 Sum of electronic and zero-point Energies=            -78.489661
 Sum of electronic and thermal Energies=               -78.486629
 Sum of electronic and thermal Enthalpies=             -78.485685
 Sum of electronic and thermal Free Energies=          -78.511841

                     E (Thermal)             CV                S
                      KCal/Mol        Cal/Mol-Kelvin    Cal/Mol-Kelvin
 Total                   34.296              8.016             55.051
 Electronic               0.000              0.000              0.000
 Translational            0.889              2.981             35.927
 Rotational               0.889              2.981             18.616
 Vibrational             32.519              2.055              0.508

 Optimization completed.
    -- Stationary point found.
 Normal termination of Gaussian 09 at Tue Mar 11 10:45:48 2025.
