 Gaussian 09, Revision D.01,
 Gaussian 09:  ES64L-G09RevD.01 24-Apr-2013

 ---------------------------------
 #m062X/6-31+G(d) OPT Freq=noraman
 ---------------------------------

 --------------
 chloroethylene
 --------------
 Symbolic Z-matrix:
 Charge =  0 Multiplicity = 1

 SCF Done:  E(RM062X) =  -538.111848633     A.U. after   11 cycles
 SCF Done:  E(RM062X) =  -538.112312420     A.U. after   10 cycles
 SCF Done:  E(RM062X) =  -538.112358329     A.U. after    9 cycles
 Optimization completed.
    -- Stationary point found.
 Normal termination of Gaussian 09 at Tue Mar 11 10:50:51 2025.

 ---------------------------------------------------------------------
 #N Geom=AllCheck Guess=TCheck SCRF=Check GenChk RM062X/6-31+G(d) Freq
 ---------------------------------------------------------------------

 Structure from the checkpoint file:  "/srv/scratch/z5358697/com/Gau-858.chk"
 --------------
 chloroethylene
 --------------
 Charge =  0 Multiplicity = 1

                         Standard orientation:
 ---------------------------------------------------------------------
 Center     Atomic      Atomic             Coordinates (Angstroms)
 Number     Number       Type             X           Y           Z
 ---------------------------------------------------------------------
      1          6           0       -1.634747   -0.284955   -0.000003
      2          6           0       -0.569458    0.504255   -0.000017
      3         17           0        1.060085   -0.099640    0.000003
      4          1           0       -2.625391    0.157724    0.000055
      5          1           0       -1.551478   -1.366928   -0.000009
      6          1           0       -0.619347    1.587277    0.000019
 ---------------------------------------------------------------------

 SCF Done:  E(RM062X) =  -538.112358329     A.U. after    1 cycles

 The electronic state is 1-A.
 Alpha  occ. eigenvalues -- -102.67306 -10.62025 -10.56817  -9.82036  -7.54436
 Alpha  occ. eigenvalues --   -7.53782  -7.53755  -0.97785  -0.84978  -0.67017
 Alpha  occ. eigenvalues --   -0.56376  -0.51951  -0.44994  -0.43718  -0.37987
 Alpha  occ. eigenvalues --   -0.32368
 Alpha virt. eigenvalues --    0.01566   0.03147   0.03965   0.04079   0.06317
 Alpha virt. eigenvalues --    0.07838   0.09611   0.10747   0.11396   0.13011
 Alpha virt. eigenvalues --    0.13144   0.14026   0.15045   0.19048   0.23474

 Mulliken charges:
               1
     1  C   -0.488432
     2  C   -0.152022
     3  Cl  -0.045340
     4  H    0.214983
     5  H    0.223832
     6  H    0.246980
 Sum of Mulliken charges =   0.00000

 Dipole moment (field-independent basis, Debye):
    X=             -1.5493    Y=              0.4652    Z=              0.0001  Tot=              1.6176
 Quadrupole moment (field-independent basis, Debye-Ang):
   XX=            -23.5093   YY=            -23.2382   ZZ=            -27.5140
   XY=             -0.1882   XZ=             -0.0002   YZ=              0.0001

  Exact polarizability:  50.239   2.821  31.576   0.000   0.000  22.721
 Approx polarizability:  56.510   4.546  36.327   0.000   0.000  24.951

                      1                      2                      3
                      A                      A                      A
 Frequencies --    402.1886               629.3979               729.6216
 Red. masses --      2.9716                 1.4044                 4.1012
 Frc consts  --      0.2832                 0.3278                 1.2863
 IR Inten    --      0.1957                16.6499                44.6653

                      4                      5                      6
                      A                      A                      A
 Frequencies --    941.4781               986.1152              1051.2696
 Red. masses --      1.3860                 1.0848                 1.4570
 Frc consts  --      0.7238                 0.6215                 0.9487
 IR Inten    --     43.2525                41.7767                20.8084

                      7                      8                      9
                      A                      A                      A
 Frequencies --   1318.6180              1422.4071              1713.2729
 Red. masses --      1.1783                 1.1663                 4.6224
 Frc consts  --      1.2071                 1.3903                 7.9941
 IR Inten    --     12.1009                 9.1461                58.7069

                     10                     11                     12
                      A                      A                      A
 Frequencies --   3189.8021              3245.4013              3284.9124
 Red. masses --      1.0590                 1.0980                 1.1177
 Frc consts  --      6.3483                 6.8140                 7.1058
 IR Inten    --      0.3479                 4.2351                 1.2823

 - Thermochemistry -
 -------------------
 Temperature   298.150 Kelvin.  Pressure   1.00000 Atm.
 Atom     1 has atomic number  6 and mass  12.00000

 Molecular mass:    61.99233 amu.
 Principal axes and moments of inertia in atomic units:
                           1         2         3
     Eigenvalues --    31.45622 301.70001 333.15623
           X            0.99995   0.01026   0.00000
           Y           -0.01026   0.99995   0.00001
           Z            0.00000  -0.00001   1.00000
 This molecule is an asymmetric top.
 Rotational symmetry number  1.
 Rotational temperatures (Kelvin)      2.75347     0.28709     0.25998
 Rotational constants (GHZ):          57.37311     5.98191     5.41710
 Zero-point vibrational energy     113133.7 (Joules/Mol)
                                   27.03961 (Kcal/Mol)
 Warning -- explicit consideration of   1 degrees of freedom as
           vibrations may cause significant error
 Vibrational temperatures:    578.66   905.56  1049.76  1354.58  1418.80
          (Kelvin)           1512.54  1897.19  2046.52  2465.01  4589.41
                             4669.40  4726.25

 Zero-point correction=                           0.043090 (Hartree/Particle)
 Thermal correction to Energy=                    0.046610
 Thermal correction to Enthalpy=                  0.047554
 Thermal correction to Gibbs Free Energy=         0.017652
 Sum of electronic and zero-point Energies=           -538.069268
 Sum of electronic and thermal Energies=              -538.065748
 Sum of electronic and thermal Enthalpies=            -538.064804
 Sum of electronic and thermal Free Energies=         -538.094707

                     E (Thermal)             CV                S
                      KCal/Mol        Cal/Mol-Kelvin    Cal/Mol-Kelvin
 Total                   29.248             10.606             62.935
 Electronic               0.000              0.000              0.000
 Translational            0.889              2.981             38.293
 Rotational               0.889              2.981             22.674
 Vibrational             27.471              4.644              1.969
 Vibration     1          0.768              1.465              0.955

 Normal termination of Gaussian 09 at Tue Mar 11 10:51:09 2025.
