 Gaussian 09, Revision D.01,
 Gaussian 09:  ES64L-G09RevD.01 24-Apr-2013

 ---------------------------------
 #m062X/6-31+G(d) OPT Freq=noraman
 ---------------------------------

 --------------
 methoxymethane
 --------------
 Symbolic Z-matrix:
 Charge =  0 Multiplicity = 1

 SCF Done:  E(RM062X) =  -154.948086336     A.U. after   11 cycles
 SCF Done:  E(RM062X) =  -154.949181620     A.U. after   10 cycles
 SCF Done:  E(RM062X) =  -154.949325412     A.U. after    9 cycles
 SCF Done:  E(RM062X) =  -154.949334271     A.U. after    8 cycles
 Optimization completed.
    -- Stationary point found.

 1\1\GINC-KATANA1\FOpt\RM062X\6-31+G(d)\C2H6O1\Z5358697\11-Mar-2025\0\\
 #m062X/6-31+G(d) OPT Freq=noraman\\methoxymethane\\0,1\C,-0.6017668548
 ,-0.5168209245,0.7506760624\O,0.0394775248,-0.5046496724,2.0007622484\
 C,1.2792536021,-1.164599924,1.9627762457\H,-1.550256129,0.0109948665,0
 .864297568\H,-0.7979474374,-1.546548789,0.4156268496\H,0.0071550385,-0
 .0083749334,-0.0120251473\H,1.709538557,-1.1105183905,2.9643082164\H,1
 .9632106593,-0.6826281244,1.247930606\H,1.1575350396,-2.2202541081,1.6
 767473507\\Version=ES64L-G09RevD.01\State=1-A\HF=-154.9493343\RMSD=4.5

 Normal termination of Gaussian 09 at Tue Mar 11 10:49:56 2025.

 ---------------------------------------------------------------------
 #N Geom=AllCheck Guess=TCheck SCRF=Check GenChk RM062X/6-31+G(d) Freq
 ---------------------------------------------------------------------

 Structure from the checkpoint file:  "/srv/scratch/z5358697/com/Gau-2883593.chk"
 --------------
 methoxymethane
 --------------
 Charge =  0 Multiplicity = 1

                         Standard orientation:
 ---------------------------------------------------------------------
 Center     Atomic      Atomic             Coordinates (Angstroms)
 Number     Number       Type             X           Y           Z
 ---------------------------------------------------------------------
      1          6           0       -1.164797    0.195591    0.000034
      2          8           0        0.000021   -0.590066    0.000000
      3          6           0        1.164804    0.195620   -0.000033
      4          1           0       -2.018289   -0.484617   -0.000477
      5          1           0       -1.211232    0.835966   -0.893749
      6          1           0       -1.211327    0.835256    0.894282
      7          1           0        2.018306   -0.484579    0.000470
      8          1           0        1.211122    0.835964    0.893786
      9          1           0        1.211208    0.835267   -0.894311
 ---------------------------------------------------------------------

 SCF Done:  E(RM062X) =  -154.949334271     A.U. after    1 cycles

 The electronic state is 1-A.
 Alpha  occ. eigenvalues --  -19.64834 -10.58895 -10.58894  -1.16205  -0.81994
 Alpha  occ. eigenvalues --   -0.72990  -0.55319  -0.55093  -0.54962  -0.46315
 Alpha  occ. eigenvalues --   -0.44275  -0.39231  -0.33155
 Alpha virt. eigenvalues --    0.03018   0.04343   0.04672   0.05478   0.07165
 Alpha virt. eigenvalues --    0.08094   0.09232   0.13274   0.19775   0.21328
 Alpha virt. eigenvalues --    0.22705   0.24302   0.25266   0.27563   0.28475

 Mulliken charges:
               1
     1  C   -0.388588
     2  O   -0.363736
     3  C   -0.388564
     4  H    0.207216
     5  H    0.181601
     6  H    0.181632
     7  H    0.207214
     8  H    0.181597
     9  H    0.181627
 Sum of Mulliken charges =   0.00000

 Dipole moment (field-independent basis, Debye):
    X=             -0.0001    Y=              1.4715    Z=              0.0000  Tot=              1.4715
 Quadrupole moment (field-independent basis, Debye-Ang):
   XX=            -17.2777   YY=            -21.6793   ZZ=            -20.4594
   XY=             -0.0002   XZ=              0.0010   YZ=              0.0000

  Exact polarizability:  32.874  -0.001  27.418   0.002   0.000  27.517
 Approx polarizability:  31.047  -0.001  30.195   0.002   0.000  29.410

                      1                      2                      3
                      A                      A                      A
 Frequencies --    212.1959               252.2418               421.3136
 Red. masses --      1.0326                 1.3019                 2.2719
 Frc consts  --      0.0274                 0.0488                 0.2376
 IR Inten    --      0.0001                 7.0745                 2.7383

                      4                      5                      6
                      A                      A                      A
 Frequencies --    988.9717              1142.7925              1177.6675
 Red. masses --      3.7129                 1.3853                 1.2179
 Frc consts  --      2.1396                 1.0660                 0.9952
 IR Inten    --     40.9640                13.9226                 0.0000

                      7                      8                      9
                      A                      A                      A
 Frequencies --   1208.4216              1250.1658              1281.3226
 Red. masses --      1.3597                 5.3196                 1.6257
 Frc consts  --      1.1698                 4.8985                 1.5725
 IR Inten    --     10.3344               139.3634                 8.9463

                     10                     11                     12
                      A                      A                      A
 Frequencies --   1477.4508              1509.8060              1510.2373
 Red. masses --      1.1241                 1.1647                 1.0466
 Frc consts  --      1.4457                 1.5643                 1.4064
 IR Inten    --      3.3569                 0.2334                 0.0082

                     13                     14                     15
                      A                      A                      A
 Frequencies --   1521.1589              1521.8421              1538.5327
 Red. masses --      1.0512                 1.0465                 1.0636
 Frc consts  --      1.4331                 1.4280                 1.4833
 IR Inten    --     14.5374                15.3730                 2.3104

                     16                     17                     18
                      A                      A                      A
 Frequencies --   3028.5150              3037.2092              3080.7011
 Red. masses --      1.0341                 1.0360                 1.1032
 Frc consts  --      5.5884                 5.6307                 6.1688
 IR Inten    --     57.1001                62.0350               129.3132

                     19                     20                     21
                      A                      A                      A
 Frequencies --   3087.4494              3171.3531              3172.0352
 Red. masses --      1.1060                 1.0983                 1.0988
 Frc consts  --      6.2114                 6.5085                 6.5139
 IR Inten    --      0.0029                28.3181                20.4838

 - Thermochemistry -
 -------------------
 Temperature   298.150 Kelvin.  Pressure   1.00000 Atm.
 Atom     1 has atomic number  6 and mass  12.00000

 Molecular mass:    46.04186 amu.
 Principal axes and moments of inertia in atomic units:
                           1         2         3
     Eigenvalues --    45.98682 178.22971 201.20322
           X            1.00000   0.00000   0.00001
           Y            0.00000   1.00000   0.00000
           Z           -0.00001   0.00000   1.00000
 This molecule is an asymmetric top.
 Rotational symmetry number  1.
 Rotational temperatures (Kelvin)      1.88345     0.48597     0.43048
 Rotational constants (GHZ):          39.24475    10.12593     8.96974
 Zero-point vibrational energy     212883.7 (Joules/Mol)
                                   50.88044 (Kcal/Mol)
 Warning -- explicit consideration of   3 degrees of freedom as
           vibrations may cause significant error
 Vibrational temperatures:    305.30   362.92   606.18  1422.91  1644.22
          (Kelvin)           1694.40  1738.65  1798.71  1843.54  2125.72
                             2172.27  2172.89  2188.61  2189.59  2213.60
                             4357.35  4369.86  4432.44  4442.15  4562.86
                             4563.85

 Zero-point correction=                           0.081083 (Hartree/Particle)
 Thermal correction to Energy=                    0.085378
 Thermal correction to Enthalpy=                  0.086322
 Thermal correction to Gibbs Free Energy=         0.055711
 Sum of electronic and zero-point Energies=           -154.868251
 Sum of electronic and thermal Energies=              -154.863956
 Sum of electronic and thermal Enthalpies=            -154.863012
 Sum of electronic and thermal Free Energies=         -154.893623

                     E (Thermal)             CV                S
                      KCal/Mol        Cal/Mol-Kelvin    Cal/Mol-Kelvin
 Total                   53.575             12.784             64.426
 Electronic               0.000              0.000              0.000
 Translational            0.889              2.981             37.406
 Rotational               0.889              2.981             22.027
 Vibrational             51.798              6.822              4.993
 Vibration     1          0.643              1.822              2.025
 Vibration     2          0.664              1.759              1.715
 Vibration     3          0.784              1.424              0.888

 Optimization completed.
    -- Stationary point found.

 1\1\GINC-KATANA1\Freq\RM062X\6-31+G(d)\C2H6O1\Z5358697\11-Mar-2025\0\\
 #N Geom=AllCheck Guess=TCheck SCRF=Check GenChk RM062X/6-31+G(d) Freq\
 \methoxymethane\\0,1\C,-0.6017668548,-0.5168209245,0.7506760624\O,0.03
 94775248,-0.5046496724,2.0007622484\C,1.2792536021,-1.164599924,1.9627
 762457\H,-1.550256129,0.0109948665,0.864297568\H,-0.7979474374,-1.5465
 48789,0.4156268496\H,0.0071550385,-0.0083749334,-0.0120251473\H,1.7095
 38557,-1.1105183905,2.9643082164\H,1.9632106593,-0.6826281244,1.247930
 606\H,1.1575350396,-2.2202541081,1.6767473507\\Version=ES64L-G09RevD.0

 Normal termination of Gaussian 09 at Tue Mar 11 10:50:30 2025.
