 Gaussian 09, Revision D.01,
 Gaussian 09:  ES64L-G09RevD.01 24-Apr-2013

 ---------------------------------
 #m062X/6-31+G(d) OPT Freq=noraman
 ---------------------------------

 -------------
 fluoromethane
 -------------
 Symbolic Z-matrix:
 Charge =  0 Multiplicity = 1

 SCF Done:  E(RM062X) =  -139.684017631     A.U. after    9 cycles
 SCF Done:  E(RM062X) =  -139.684509483     A.U. after    9 cycles
 SCF Done:  E(RM062X) =  -139.684567016     A.U. after    8 cycles
 SCF Done:  E(RM062X) =  -139.684569923     A.U. after    8 cycles
 Optimization completed.
    -- Stationary point found.

 1\1\GINC-KATANA2\FOpt\RM062X\6-31+G(d)\C1H3F1\Z5358697\11-Mar-2025\0\\
 #m062X/6-31+G(d) OPT Freq=noraman\\fluoromethane\\0,1\C,0.0389217057,-
 0.0386916132,-0.0401970731\F,-0.7568762879,0.7455911842,0.7773345196\H
 ,0.8231754469,0.5900278074,-0.4681278294\H,0.4786501943,-0.8362428328,
 0.5631322066\H,-0.583871059,-0.4606845456,-0.8321418237\\Version=ES64L
 -G09RevD.01\State=1-A\HF=-139.6845699\RMSD=3.723e-09\RMSF=1.005e-04\Di
 pole=0.461605,-0.4549705,-0.4741749\Quadrupole=0.0009895,0.0075187,-0.
 0085082,0.1825408,0.1910754,-0.187296\PG=C01 [X(C1H3F1)]\\@

 Normal termination of Gaussian 09 at Tue Mar 11 10:47:05 2025.

 ---------------------------------------------------------------------
 #N Geom=AllCheck Guess=TCheck SCRF=Check GenChk RM062X/6-31+G(d) Freq
 ---------------------------------------------------------------------

 Structure from the checkpoint file:  "/srv/scratch/z5358697/com/Gau-4192024.chk"
 -------------
 fluoromethane
 -------------
 Charge =  0 Multiplicity = 1

                         Standard orientation:
 ---------------------------------------------------------------------
 Center     Atomic      Atomic             Coordinates (Angstroms)
 Number     Number       Type             X           Y           Z
 ---------------------------------------------------------------------
      1          6           0        0.634216    0.000025   -0.000055
      2          9           0       -0.750253    0.000007   -0.000075
      3          1           0        0.981524    0.163846    1.022689
      4          1           0        0.982526   -0.967493   -0.368897
      5          1           0        0.982929    0.803437   -0.652783
 ---------------------------------------------------------------------

 SCF Done:  E(RM062X) =  -139.684569923     A.U. after    1 cycles

 The electronic state is 1-A.
 Alpha  occ. eigenvalues --  -25.24818 -10.62235  -1.33446  -0.80177  -0.57188
 Alpha  occ. eigenvalues --   -0.57187  -0.56868  -0.42812  -0.42805
 Alpha virt. eigenvalues --    0.02892   0.03890   0.05922   0.05922   0.21354
 Alpha virt. eigenvalues --    0.22793   0.22807   0.24297   0.29879   0.29880
 Alpha virt. eigenvalues --    0.32549   0.39844   0.69125   0.69353   0.69362

 Mulliken charges:
               1
     1  C   -0.270631
     2  F   -0.318603
     3  H    0.196381
     4  H    0.196429
     5  H    0.196424
 Sum of Mulliken charges =   0.00000

 Dipole moment (field-independent basis, Debye):
    X=              2.0412    Y=             -0.0001    Z=             -0.0001  Tot=              2.0412
 Quadrupole moment (field-independent basis, Debye-Ang):
   XX=            -12.6854   YY=            -11.9302   ZZ=            -11.9310
   XY=              0.0001   XZ=             -0.0012   YZ=             -0.0002

  Exact polarizability:  14.164  -0.035  14.000  -0.001   0.042  13.984
 Approx polarizability:  14.304   0.000  14.044  -0.004   0.001  14.045

                      1                      2                      3
                      A                      A                      A
 Frequencies --   1114.2818              1205.6217              1209.8242
 Red. masses --      7.6146                 1.2528                 1.2504
 Frc consts  --      5.5704                 1.0729                 1.0783
 IR Inten    --    119.0328                 1.4676                 1.3703

                      4                      5                      6
                      A                      A                      A
 Frequencies --   1507.6793              1521.6143              1525.3888
 Red. masses --      1.1505                 1.0508                 1.0504
 Frc consts  --      1.5408                 1.4335                 1.4400
 IR Inten    --      3.6460                 4.1808                 4.3175

                      7                      8                      9
                      A                      A                      A
 Frequencies --   3095.9442              3185.9045              3187.0381
 Red. masses --      1.0270                 1.1082                 1.1081
 Frc consts  --      5.7999                 6.6274                 6.6316
 IR Inten    --     30.9020                28.9256                29.8370

 - Thermochemistry -
 -------------------
 Temperature   298.150 Kelvin.  Pressure   1.00000 Atm.
 Atom     1 has atomic number  6 and mass  12.00000

 Molecular mass:    34.02188 amu.
 Principal axes and moments of inertia in atomic units:
                           1         2         3
     Eigenvalues --    11.57622  70.21519  70.21626
           X            1.00000   0.00000  -0.00001
           Y            0.00000   1.00000   0.00002
           Z            0.00001  -0.00002   1.00000
 This molecule is an asymmetric top.
 Rotational symmetry number  1.
 Rotational temperatures (Kelvin)      7.48205     1.23355     1.23353
 Rotational constants (GHZ):         155.90071    25.70300    25.70261
 Zero-point vibrational energy     104992.0 (Joules/Mol)
                                   25.09370 (Kcal/Mol)
 Vibrational temperatures:   1603.20  1734.62  1740.66  2169.21  2189.26
          (Kelvin)           2194.69  4454.37  4583.80  4585.43

 Zero-point correction=                           0.039989 (Hartree/Particle)
 Thermal correction to Energy=                    0.042892
 Thermal correction to Enthalpy=                  0.043836
 Thermal correction to Gibbs Free Energy=         0.017532
 Sum of electronic and zero-point Energies=           -139.644581
 Sum of electronic and thermal Energies=              -139.641678
 Sum of electronic and thermal Enthalpies=            -139.640734
 Sum of electronic and thermal Free Energies=         -139.667038

                     E (Thermal)             CV                S
                      KCal/Mol        Cal/Mol-Kelvin    Cal/Mol-Kelvin
 Total                   26.915              6.841             55.361
 Electronic               0.000              0.000              0.000
 Translational            0.889              2.981             36.504
 Rotational               0.889              2.981             18.685
 Vibrational             25.137              0.879              0.172

 Optimization completed.
    -- Stationary point found.

 1\1\GINC-KATANA2\Freq\RM062X\6-31+G(d)\C1H3F1\Z5358697\11-Mar-2025\0\\
 #N Geom=AllCheck Guess=TCheck SCRF=Check GenChk RM062X/6-31+G(d) Freq\
 \fluoromethane\\0,1\C,0.0389217057,-0.0386916132,-0.0401970731\F,-0.75
 68762879,0.7455911842,0.7773345196\H,0.8231754469,0.5900278074,-0.4681
 278294\H,0.4786501943,-0.8362428328,0.5631322066\H,-0.583871059,-0.460
 6845456,-0.8321418237\\Version=ES64L-G09RevD.01\State=1-A\HF=-139.6845
 699\RMSD=2.765e-10\RMSF=1.005e-04\ZeroPoint=0.0399894\Thermal=0.042891
 7\Dipole=0.461605,-0.4549705,-0.4741749\DipoleDeriv=0.5950833,-0.20780

 Normal termination of Gaussian 09 at Tue Mar 11 10:47:15 2025.
