 Gaussian 09, Revision D.01,
 Gaussian 09:  ES64L-G09RevD.01 24-Apr-2013

 ---------------------------------
 #m062X/6-31+G(d) OPT Freq=noraman
 ---------------------------------

 ------------
 methane.freq
 ------------
 Symbolic Z-matrix:
 Charge =  0 Multiplicity = 1

 SCF Done:  E(RM062X) =  -40.4823125009     A.U. after    7 cycles
 SCF Done:  E(RM062X) =  -40.4835867203     A.U. after    7 cycles
 Optimization completed.
    -- Stationary point found.
 Normal termination of Gaussian 09 at Mon Mar 10 10:31:21 2025.

 ---------------------------------------------------------------------
 #N Geom=AllCheck Guess=TCheck SCRF=Check GenChk RM062X/6-31+G(d) Freq
 ---------------------------------------------------------------------

 Structure from the checkpoint file:  "/srv/scratch/z5358697/00-test/Gau-2625255.chk"
 ------------
 methane.freq
 ------------
 Charge =  0 Multiplicity = 1

                         Standard orientation:
 ---------------------------------------------------------------------
 Center     Atomic      Atomic             Coordinates (Angstroms)
 Number     Number       Type             X           Y           Z
 ---------------------------------------------------------------------
      1          6           0        0.000000    0.000000    0.000000
      2          1           0        0.630646    0.630646    0.630646
      3          1           0       -0.630646   -0.630646    0.630646
      4          1           0        0.630646   -0.630646   -0.630646
      5          1           0       -0.630646    0.630646   -0.630646
 ---------------------------------------------------------------------

 SCF Done:  E(RM062X) =  -40.4835867203     A.U. after    1 cycles

 The electronic state is 1-A1.
 Alpha  occ. eigenvalues --  -10.52735  -0.78588  -0.45639  -0.45639  -0.45639
 Alpha virt. eigenvalues --    0.03889   0.07121   0.07121   0.07121   0.22938
 Alpha virt. eigenvalues --    0.22938   0.22938   0.30990   0.69237   0.69237
 Alpha virt. eigenvalues --    0.69237   0.99813   0.99813   0.99813   1.11484

 Mulliken charges:
               1
     1  C   -0.816114
     2  H    0.204028
     3  H    0.204028
     4  H    0.204028
     5  H    0.204028
 Sum of Mulliken charges =   0.00000

 Dipole moment (field-independent basis, Debye):
    X=              0.0000    Y=              0.0000    Z=              0.0000  Tot=              0.0000
 Quadrupole moment (field-independent basis, Debye-Ang):
   XX=             -8.4843   YY=             -8.4843   ZZ=             -8.4843
   XY=              0.0000   XZ=              0.0000   YZ=              0.0000

  Exact polarizability:  13.425   0.000  13.425   0.000   0.000  13.425
 Approx polarizability:  13.087   0.000  13.087   0.000   0.000  13.087

                      1                      2                      3
                     T2                     T2                     T2
 Frequencies --   1375.6222              1375.6222              1375.6222
 Red. masses --      1.1786                 1.1786                 1.1786
 Frc consts  --      1.3141                 1.3141                 1.3141
 IR Inten    --     19.9632                19.9632                19.9632

                      4                      5                      6
                      E                      E                     A1
 Frequencies --   1594.0796              1594.0796              3079.9864
 Red. masses --      1.0078                 1.0078                 1.0078
 Frc consts  --      1.5089                 1.5089                 5.6329
 IR Inten    --      0.0000                 0.0000                 0.0000

                      7                      8                      9
                     T2                     T2                     T2
 Frequencies --   3199.3263              3199.3263              3199.3263
 Red. masses --      1.1020                 1.1020                 1.1020
 Frc consts  --      6.6457                 6.6457                 6.6457
 IR Inten    --     20.3044                20.3044                20.3044

 - Thermochemistry -
 -------------------
 Temperature   298.150 Kelvin.  Pressure   1.00000 Atm.
 Atom     1 has atomic number  6 and mass  12.00000

 Molecular mass:    16.03130 amu.
 Principal axes and moments of inertia in atomic units:
                           1         2         3
     Eigenvalues --    11.45101  11.45101  11.45101
           X           -0.67590   0.73700   0.00000
           Y            0.73700   0.67590   0.00000
           Z            0.00000   0.00000   1.00000
 This molecule is a spherical top.
 Rotational symmetry number 12.
 Rotational temperatures (Kelvin)      7.56386     7.56386     7.56386
 Rotational constants (GHZ):         157.60537   157.60537   157.60537
 Zero-point vibrational energy     119584.6 (Joules/Mol)
                                   28.58142 (Kcal/Mol)
 Vibrational temperatures:   1979.21  1979.21  1979.21  2293.52  2293.52
          (Kelvin)           4431.41  4603.11  4603.11  4603.11

 Zero-point correction=                           0.045547 (Hartree/Particle)
 Thermal correction to Energy=                    0.048411
 Thermal correction to Enthalpy=                  0.049355
 Thermal correction to Gibbs Free Energy=         0.028227
 Sum of electronic and zero-point Energies=            -40.438039
 Sum of electronic and thermal Energies=               -40.435175
 Sum of electronic and thermal Enthalpies=             -40.434231
 Sum of electronic and thermal Free Energies=          -40.455360

                     E (Thermal)             CV                S
                      KCal/Mol        Cal/Mol-Kelvin    Cal/Mol-Kelvin
 Total                   30.379              6.414             44.469
 Electronic               0.000              0.000              0.000
 Translational            0.889              2.981             34.261
 Rotational               0.889              2.981             10.132
 Vibrational             28.601              0.453              0.075

 Optimization completed.
    -- Stationary point found.
 Normal termination of Gaussian 09 at Mon Mar 10 10:31:25 2025.
