 Gaussian 09, Revision D.01,
 Gaussian 09:  ES64L-G09RevD.01 24-Apr-2013

 ---------------------------------
 #m062X/6-31+G(d) OPT Freq=noraman
 ---------------------------------

 ----------------------------
 1,1,1,2,2,2-hexachloroethane
 ----------------------------
 Symbolic Z-matrix:
 Charge =  0 Multiplicity = 1

 SCF Done:  E(RM062X) =  -2837.13156555     A.U. after   12 cycles
 SCF Done:  E(RM062X) =  -2837.13528913     A.U. after   11 cycles
 SCF Done:  E(RM062X) =  -2837.13633300     A.U. after   11 cycles
 SCF Done:  E(RM062X) =  -2837.13637252     A.U. after    9 cycles
 SCF Done:  E(RM062X) =  -2837.13632905     A.U. after    9 cycles
 SCF Done:  E(RM062X) =  -2837.13630953     A.U. after   10 cycles
 SCF Done:  E(RM062X) =  -2837.13642276     A.U. after   10 cycles
 Optimization completed.
    -- Stationary point found.
 Normal termination of Gaussian 09 at Fri Mar 14 14:22:28 2025.

 ---------------------------------------------------------------------
 #N Geom=AllCheck Guess=TCheck SCRF=Check GenChk RM062X/6-31+G(d) Freq
 ---------------------------------------------------------------------

 Structure from the checkpoint file:  "/srv/scratch/z5358697/gauss/Gau-756894.chk"
 ----------------------------
 1,1,1,2,2,2-hexachloroethane
 ----------------------------
 Charge =  0 Multiplicity = 1

                         Standard orientation:
 ---------------------------------------------------------------------
 Center     Atomic      Atomic             Coordinates (Angstroms)
 Number     Number       Type             X           Y           Z
 ---------------------------------------------------------------------
      1          6           0       -0.793059    0.000228    0.000302
      2          6           0        0.793044   -0.000173   -0.000347
      3         17           0        1.392368    0.066705    1.668288
      4         17           0        1.389653   -1.479422   -0.778128
      5         17           0        1.389583    1.412872   -0.893521
      6         17           0       -1.389763    1.479140    0.778641
      7         17           0       -1.389333   -1.413211    0.893023
      8         17           0       -1.392502   -0.066104   -1.668287
 ---------------------------------------------------------------------

 SCF Done:  E(RM062X) =  -2837.13642276     A.U. after    1 cycles

 The electronic state is 1-A.
 Alpha  occ. eigenvalues -- -102.70985-102.70984-102.70971-102.70970-102.70958
 Alpha  occ. eigenvalues -- -102.70957 -10.77568 -10.77540  -9.85684  -9.85683
 Alpha  occ. eigenvalues --   -9.85671  -9.85670  -9.85659  -9.85658  -7.58143
 Alpha  occ. eigenvalues --   -7.58142  -7.58130  -7.58129  -7.58118  -7.58117
 Alpha  occ. eigenvalues --   -7.57357  -7.57356  -7.57346  -7.57345  -7.57343
 Alpha  occ. eigenvalues --   -7.57343  -7.57333  -7.57333  -7.57331  -7.57331
 Alpha  occ. eigenvalues --   -7.57321  -7.57321  -1.11178  -1.04444  -0.97053
 Alpha  occ. eigenvalues --   -0.97043  -0.94913  -0.94899  -0.80490  -0.68395
 Alpha  occ. eigenvalues --   -0.60503  -0.59272  -0.59270  -0.54035  -0.54033
 Alpha  occ. eigenvalues --   -0.44924  -0.44913  -0.43740  -0.42805  -0.42801
 Alpha  occ. eigenvalues --   -0.42111  -0.42107  -0.40998  -0.39823  -0.38467
 Alpha  occ. eigenvalues --   -0.38460  -0.37943
 Alpha virt. eigenvalues --   -0.01793  -0.01102  -0.00749  -0.00745   0.02478
 Alpha virt. eigenvalues --    0.03667   0.03673   0.04439   0.04529   0.04534
 Alpha virt. eigenvalues --    0.07884   0.07887   0.08283   0.08878   0.10963

 Mulliken charges:
               1
     1  C   -0.824644
     2  C   -0.824613
     3  Cl   0.275529
     4  Cl   0.274260
     5  Cl   0.274819
     6  Cl   0.274306
     7  Cl   0.274742
     8  Cl   0.275601
 Sum of Mulliken charges =   0.00000

 Dipole moment (field-independent basis, Debye):
    X=             -0.0001    Y=              0.0001    Z=             -0.0001  Tot=              0.0001
 Quadrupole moment (field-independent basis, Debye-Ang):
   XX=            -87.5842   YY=            -85.4580   ZZ=            -85.4432
   XY=             -0.0068   XZ=              0.0089   YZ=              0.0029

  Exact polarizability:  86.037   0.013  97.358   0.002   0.013  97.290
 Approx polarizability:  98.243   0.004 126.008   0.026  -0.006 125.974

                      1                      2                      3
                      A                      A                      A
 Frequencies --     86.8425               171.1354               174.6193
 Red. masses --     34.9682                34.4438                34.4435
 Frc consts  --      0.1554                 0.5943                 0.6188
 IR Inten    --      0.0006                 0.1582                 0.1579

                      4                      5                      6
                      A                      A                      A
 Frequencies --    227.8563               228.6478               232.4981
 Red. masses --     34.7801                34.7803                34.6538
 Frc consts  --      1.0639                 1.0713                 1.1037
 IR Inten    --      0.0000                 0.0000                 0.0000

                      7                      8                      9
                      A                      A                      A
 Frequencies --    283.2370               284.2732               348.5877
 Red. masses --     31.2995                31.3316                32.8726
 Frc consts  --      1.4794                 1.4918                 2.3535
 IR Inten    --      0.0748                 0.0727                 0.0000

                     10                     11                     12
                      A                      A                      A
 Frequencies --    349.7407               388.7010               450.5630
 Red. masses --     32.8313                28.1718                34.0166
 Frc consts  --      2.3661                 2.5078                 4.0687
 IR Inten    --      0.0000                 1.2997                 0.0000

                     13                     14                     15
                      A                      A                      A
 Frequencies --    705.3922               816.6963               817.7271
 Red. masses --     14.1218                13.5327                13.5149
 Frc consts  --      4.1400                 5.3181                 5.3245
 IR Inten    --     55.5895               205.9622               204.0741

                     16                     17                     18
                      A                      A                      A
 Frequencies --    894.5624               897.8111               998.1793
 Red. masses --     12.4754                12.4685                12.1553
 Frc consts  --      5.8820                 5.9215                 7.1356
 IR Inten    --      0.0001                 0.0001                 0.0000

 - Thermochemistry -
 -------------------
 Temperature   298.150 Kelvin.  Pressure   1.00000 Atm.
 Atom     1 has atomic number  6 and mass  12.00000

 Molecular mass:   233.81312 amu.
 Principal axes and moments of inertia in atomic units:
                           1         2         3
     Eigenvalues --  2092.015592548.366132548.95716
           X            1.00000   0.00000   0.00000
           Y            0.00000   1.00000   0.00000
           Z            0.00000   0.00000   1.00000
 This molecule is an asymmetric top.
 Rotational symmetry number  1.
 Warning -- assumption of classical behavior for rotation
           may cause significant error
 Rotational temperatures (Kelvin)      0.04140     0.03399     0.03398
 Rotational constants (GHZ):           0.86268     0.70820     0.70803
 Zero-point vibrational energy      49986.4 (Joules/Mol)
                                   11.94703 (Kcal/Mol)
 Warning -- explicit consideration of  12 degrees of freedom as
           vibrations may cause significant error
 Vibrational temperatures:    124.95   246.23   251.24   327.83   328.97
          (Kelvin)            334.51   407.51   409.01   501.54   503.20
                              559.25   648.26  1014.90  1175.04  1176.53
                             1287.07  1291.75  1436.16

 Zero-point correction=                           0.019039 (Hartree/Particle)
 Thermal correction to Energy=                    0.027982
 Thermal correction to Enthalpy=                  0.028926
 Thermal correction to Gibbs Free Energy=        -0.016518
 Sum of electronic and zero-point Energies=          -2837.117384
 Sum of electronic and thermal Energies=             -2837.108441
 Sum of electronic and thermal Enthalpies=           -2837.107497
 Sum of electronic and thermal Free Energies=        -2837.152941

                     E (Thermal)             CV                S
                      KCal/Mol        Cal/Mol-Kelvin    Cal/Mol-Kelvin
 Total                   17.559             29.929             95.645
 Electronic               0.000              0.000              0.000
 Translational            0.889              2.981             42.250
 Rotational               0.889              2.981             30.986
 Vibrational             15.781             23.967             22.409
 Vibration     1          0.601              1.958              3.730
 Vibration     2          0.626              1.878              2.423
 Vibration     3          0.627              1.874              2.385
 Vibration     4          0.651              1.799              1.896
 Vibration     5          0.651              1.797              1.890
 Vibration     6          0.653              1.791              1.860
 Vibration     7          0.682              1.705              1.514
 Vibration     8          0.683              1.703              1.508
 Vibration     9          0.726              1.578              1.173
 Vibration    10          0.727              1.576              1.167
 Vibration    11          0.757              1.494              1.005
 Vibration    12          0.809              1.360              0.794

 Optimization completed.
    -- Stationary point found.
 Normal termination of Gaussian 09 at Fri Mar 14 14:25:23 2025.
