 Gaussian 09, Revision D.01,
 Gaussian 09:  ES64L-G09RevD.01 24-Apr-2013

 ---------------------------------
 #m062X/6-31+G(d) OPT Freq=noraman
 ---------------------------------

 ---------------------
 1,1,2-trichloroethane
 ---------------------
 Symbolic Z-matrix:
 Charge =  0 Multiplicity = 1

 SCF Done:  E(RM062X) =  -1458.47086031     A.U. after   12 cycles
 SCF Done:  E(RM062X) =  -1458.47131308     A.U. after   10 cycles
 SCF Done:  E(RM062X) =  -1458.47133362     A.U. after    9 cycles
 SCF Done:  E(RM062X) =  -1458.47133497     A.U. after    9 cycles
 Optimization completed.
    -- Stationary point found.
 Normal termination of Gaussian 09 at Tue Mar 18 22:07:46 2025.

 ---------------------------------------------------------------------
 #N Geom=AllCheck Guess=TCheck SCRF=Check GenChk RM062X/6-31+G(d) Freq
 ---------------------------------------------------------------------

 Structure from the checkpoint file:  "/srv/scratch/z5358697/gauss/Gau-921238.chk"
 ---------------------
 1,1,2-trichloroethane
 ---------------------
 Charge =  0 Multiplicity = 1

                         Standard orientation:
 ---------------------------------------------------------------------
 Center     Atomic      Atomic             Coordinates (Angstroms)
 Number     Number       Type             X           Y           Z
 ---------------------------------------------------------------------
      1          6           0       -0.877144   -0.000065    1.013942
      2          6           0        0.598489    0.000128    0.653617
      3         17           0        1.058651    1.469432   -0.237167
      4         17           0        1.059163   -1.469214   -0.237135
      5         17           0       -1.960019   -0.000254   -0.395508
      6          1           0       -1.095011   -0.892694    1.602987
      7          1           0       -1.095324    0.892871    1.602436
      8          1           0        1.179753    0.000051    1.575992
 ---------------------------------------------------------------------

 SCF Done:  E(RM062X) =  -1458.47133497     A.U. after    1 cycles

 The electronic state is 1-A.
 Alpha  occ. eigenvalues -- -102.68522-102.68520-102.67480 -10.69568 -10.64270
 Alpha  occ. eigenvalues --   -9.83242  -9.83239  -9.82167  -7.55668  -7.55666
 Alpha  occ. eigenvalues --   -7.54955  -7.54953  -7.54930  -7.54928  -7.54598
 Alpha  occ. eigenvalues --   -7.53887  -7.53867  -1.03916  -0.96431  -0.93424
 Alpha  occ. eigenvalues --   -0.83293  -0.70646  -0.59229  -0.57995  -0.53648
 Alpha  occ. eigenvalues --   -0.49358  -0.48355  -0.41004  -0.40121  -0.38091
 Alpha  occ. eigenvalues --   -0.38022  -0.37908  -0.37344
 Alpha virt. eigenvalues --    0.00138   0.01319   0.03409   0.03619   0.04267
 Alpha virt. eigenvalues --    0.04953   0.06279   0.08548   0.08799   0.09301
 Alpha virt. eigenvalues --    0.10907   0.11299   0.11603   0.12311   0.12606

 Mulliken charges:
               1
     1  C   -0.586760
     2  C   -0.561834
     3  Cl   0.094173
     4  Cl   0.094118
     5  Cl   0.091943
     6  H    0.281821
     7  H    0.281844
     8  H    0.304695
 Sum of Mulliken charges =   0.00000

 Dipole moment (field-independent basis, Debye):
    X=              0.0760    Y=              0.0007    Z=              2.9671  Tot=              2.9681
 Quadrupole moment (field-independent basis, Debye-Ang):
   XX=            -53.5204   YY=            -52.0786   ZZ=            -46.6451
   XY=             -0.0002   XZ=             -0.5143   YZ=             -0.0005

  Exact polarizability:  57.724  -0.004  62.904   1.415   0.000  52.286
 Approx polarizability:  61.218  -0.006  73.312   2.687   0.000  64.825

                      1                      2                      3
                      A                      A                      A
 Frequencies --     91.5417               162.8233               286.7853
 Red. masses --     10.1706                24.3769                16.7734
 Frc consts  --      0.0502                 0.3808                 0.8128
 IR Inten    --      0.7132                 0.2559                 1.5819

                      4                      5                      6
                      A                      A                      A
 Frequencies --    320.1058               538.0275               664.2674
 Red. masses --      2.6461                 8.1615                 7.5002
 Frc consts  --      0.1598                 1.3920                 1.9499
 IR Inten    --      1.0461                15.1167                14.1712

                      7                      8                      9
                      A                      A                      A
 Frequencies --    742.0384               808.6827               977.2345
 Red. masses --      4.0165                 4.9353                 1.7023
 Frc consts  --      1.3030                 1.9016                 0.9578
 IR Inten    --     88.3392                24.9413                50.9685

                     10                     11                     12
                      A                      A                      A
 Frequencies --   1054.8928              1232.9763              1293.7552
 Red. masses --      2.6048                 1.0269                 1.4236
 Frc consts  --      1.7078                 0.9198                 1.4040
 IR Inten    --      5.7443                 0.3382                 7.6014

                     13                     14                     15
                      A                      A                      A
 Frequencies --   1296.3368              1362.8099              1485.6248
 Red. masses --      1.1450                 1.2437                 1.0846
 Frc consts  --      1.1337                 1.3609                 1.4103
 IR Inten    --     38.7070                24.4831                 7.8259

                     16                     17                     18
                      A                      A                      A
 Frequencies --   3139.1159              3179.4872              3201.7046
 Red. masses --      1.0578                 1.0864                 1.1099
 Frc consts  --      6.1416                 6.4705                 6.7035
 IR Inten    --      7.9033                 2.6394                 0.0829

 - Thermochemistry -
 -------------------
 Temperature   298.150 Kelvin.  Pressure   1.00000 Atm.
 Atom     1 has atomic number  6 and mass  12.00000

 Molecular mass:   131.93003 amu.
 Principal axes and moments of inertia in atomic units:
                           1         2         3
     Eigenvalues --   667.38732 944.228961366.70087
           X            0.99995  -0.00001  -0.00997
           Y            0.00001   1.00000   0.00000
           Z            0.00997   0.00000   0.99995
 This molecule is an asymmetric top.
 Rotational symmetry number  1.
 Warning -- assumption of classical behavior for rotation
           may cause significant error
 Rotational temperatures (Kelvin)      0.12978     0.09173     0.06337
 Rotational constants (GHZ):           2.70419     1.91134     1.32051
 Zero-point vibrational energy     130621.5 (Joules/Mol)
                                   31.21929 (Kcal/Mol)
 Warning -- explicit consideration of   5 degrees of freedom as
           vibrations may cause significant error
 Vibrational temperatures:    131.71   234.27   412.62   460.56   774.10
          (Kelvin)            955.73  1067.63  1163.51  1406.02  1517.75
                             1773.98  1861.42  1865.14  1960.78  2137.48
                             4516.48  4574.57  4606.53

 Zero-point correction=                           0.049751 (Hartree/Particle)
 Thermal correction to Energy=                    0.055408
 Thermal correction to Enthalpy=                  0.056352
 Thermal correction to Gibbs Free Energy=         0.018618
 Sum of electronic and zero-point Energies=          -1458.421584
 Sum of electronic and thermal Energies=             -1458.415927
 Sum of electronic and thermal Enthalpies=           -1458.414983
 Sum of electronic and thermal Free Energies=        -1458.452717

                     E (Thermal)             CV                S
                      KCal/Mol        Cal/Mol-Kelvin    Cal/Mol-Kelvin
 Total                   34.769             17.999             79.419
 Electronic               0.000              0.000              0.000
 Translational            0.889              2.981             40.544
 Rotational               0.889              2.981             28.245
 Vibrational             32.992             12.037             10.630
 Vibration     1          0.602              1.955              3.627
 Vibration     2          0.623              1.888              2.517
 Vibration     3          0.684              1.698              1.493
 Vibration     4          0.706              1.635              1.310
 Vibration     5          0.893              1.166              0.570

 Optimization completed.
    -- Stationary point found.
 Normal termination of Gaussian 09 at Tue Mar 18 22:08:50 2025.
