 Gaussian 09, Revision D.01,
 Gaussian 09:  ES64L-G09RevD.01 24-Apr-2013

 ---------------------------------
 #m062X/6-31+G(d) OPT Freq=noraman
 ---------------------------------

 --------
 methanol
 --------
 Symbolic Z-matrix:
 Charge =  0 Multiplicity = 1

 SCF Done:  E(RM062X) =  -115.661927574     A.U. after   10 cycles
 SCF Done:  E(RM062X) =  -115.662835132     A.U. after   10 cycles
 SCF Done:  E(RM062X) =  -115.662903051     A.U. after    9 cycles
 SCF Done:  E(RM062X) =  -115.662905394     A.U. after    8 cycles
 Optimization completed.
    -- Stationary point found.

 1\1\GINC-KATANA3\FOpt\RM062X\6-31+G(d)\C1H4O1\Z5358697\18-Mar-2025\0\\
 #m062X/6-31+G(d) OPT Freq=noraman\\methanol\\0,1\C,0.2914284395,0.7663
 893289,0.7033834782\O,-0.3098416295,2.0018229901,0.3635448301\H,-0.073
 8140319,0.507117363,1.6983676627\H,1.3857058784,0.839380941,0.74103786
 24\H,0.0072247582,-0.03315005,0.0075279923\H,-0.0079034147,2.270839427
 ,-0.5135618257\\Version=ES64L-G09RevD.01\State=1-A\HF=-115.6629054\RMS
 D=3.121e-09\RMSF=1.070e-04\Dipole=0.4857376,-0.3849707,-0.4470023\Quad
 rupole=-0.9495993,-0.4214533,1.3710525,0.6082316,-0.1962064,-1.421918\

 Normal termination of Gaussian 09 at Tue Mar 18 19:12:36 2025.

 ---------------------------------------------------------------------
 #N Geom=AllCheck Guess=TCheck SCRF=Check GenChk RM062X/6-31+G(d) Freq
 ---------------------------------------------------------------------

 Structure from the checkpoint file:  "/srv/scratch/z5358697/gauss/Gau-3223626.chk"
 --------
 methanol
 --------
 Charge =  0 Multiplicity = 1

                         Standard orientation:
 ---------------------------------------------------------------------
 Center     Atomic      Atomic             Coordinates (Angstroms)
 Number     Number       Type             X           Y           Z
 ---------------------------------------------------------------------
      1          6           0        0.663814   -0.021117    0.000015
      2          8           0       -0.744221    0.122936    0.000015
      3          1           0        1.078727    0.988061   -0.004976
      4          1           0        1.021989   -0.550458   -0.892004
      5          1           0        1.022736   -0.542047    0.896707
      6          1           0       -1.152567   -0.752339    0.000067
 ---------------------------------------------------------------------

 SCF Done:  E(RM062X) =  -115.662905394     A.U. after    1 cycles

 The electronic state is 1-A.
 Alpha  occ. eigenvalues --  -19.64622 -10.58984  -1.14409  -0.77865  -0.58811
 Alpha  occ. eigenvalues --   -0.51753  -0.50010  -0.40891  -0.35195
 Alpha virt. eigenvalues --    0.01950   0.04165   0.06091   0.06350   0.17437
 Alpha virt. eigenvalues --    0.20399   0.22913   0.23449   0.24386   0.24415
 Alpha virt. eigenvalues --    0.28707   0.31778   0.36200   0.69046   0.70157

 Mulliken charges:
               1
     1  C   -0.367067
     2  O   -0.662776
     3  H    0.206107
     4  H    0.180238
     5  H    0.180355
     6  H    0.463143
 Sum of Mulliken charges =   0.00000

 Dipole moment (field-independent basis, Debye):
    X=              0.9375    Y=             -1.7011    Z=             -0.0006  Tot=              1.9423
 Quadrupole moment (field-independent basis, Debye-Ang):
   XX=            -13.0253   YY=            -12.2993   ZZ=            -14.0127
   XY=              2.5167   XZ=             -0.0011   YZ=             -0.0005

  Exact polarizability:  18.918   0.371  17.047   0.005   0.000  16.529
 Approx polarizability:  18.408   0.552  17.978   0.003   0.000  16.764

                      1                      2                      3
                      A                      A                      A
 Frequencies --    384.9148              1079.7690              1122.1916
 Red. masses --      1.0723                 1.1475                 5.0816
 Frc consts  --      0.0936                 0.7882                 3.7704
 IR Inten    --    151.3631                76.0586                58.0253

                      4                      5                      6
                      A                      A                      A
 Frequencies --   1186.6164              1382.6154              1502.0199
 Red. masses --      1.2687                 1.2994                 1.1457
 Frc consts  --      1.0525                 1.4635                 1.5230
 IR Inten    --      0.6547                28.2694                 7.2636

                      7                      8                      9
                      A                      A                      A
 Frequencies --   1523.3168              1537.3220              3057.7090
 Red. masses --      1.0463                 1.0448                 1.0342
 Frc consts  --      1.4306                 1.4548                 5.6972
 IR Inten    --      2.7770                 4.7518                60.0829

                     10                     11                     12
                      A                      A                      A
 Frequencies --   3115.5080              3176.4604              3836.2522
 Red. masses --      1.1060                 1.1003                 1.0668
 Frc consts  --      6.3249                 6.5413                 9.2504
 IR Inten    --     57.2582                24.1085                37.4815

 - Thermochemistry -
 -------------------
 Temperature   298.150 Kelvin.  Pressure   1.00000 Atm.
 Atom     1 has atomic number  6 and mass  12.00000

 Molecular mass:    32.02621 amu.
 Principal axes and moments of inertia in atomic units:
                           1         2         3
     Eigenvalues --    14.13247  72.47022  75.08745
           X            0.99892   0.04641   0.00000
           Y           -0.04641   0.99892  -0.00001
           Z            0.00000   0.00001   1.00000
 This molecule is an asymmetric top.
 Rotational symmetry number  1.
 Rotational temperatures (Kelvin)      6.12871     1.19516     1.15351
 Rotational constants (GHZ):         127.70179    24.90321    24.03519
 Zero-point vibrational energy     137000.5 (Joules/Mol)
                                   32.74391 (Kcal/Mol)
 Warning -- explicit consideration of   1 degrees of freedom as
           vibrations may cause significant error
 Vibrational temperatures:    553.81  1553.54  1614.58  1707.27  1989.27
          (Kelvin)           2161.07  2191.71  2211.86  4399.36  4482.52
                             4570.21  5519.50

 Zero-point correction=                           0.052181 (Hartree/Particle)
 Thermal correction to Energy=                    0.055427
 Thermal correction to Enthalpy=                  0.056371
 Thermal correction to Gibbs Free Energy=         0.029504
 Sum of electronic and zero-point Energies=           -115.610725
 Sum of electronic and thermal Energies=              -115.607479
 Sum of electronic and thermal Enthalpies=            -115.606535
 Sum of electronic and thermal Free Energies=         -115.633401

                     E (Thermal)             CV                S
                      KCal/Mol        Cal/Mol-Kelvin    Cal/Mol-Kelvin
 Total                   34.781              8.559             56.545
 Electronic               0.000              0.000              0.000
 Translational            0.889              2.981             36.324
 Rotational               0.889              2.981             18.981
 Vibrational             33.003              2.597              1.240
 Vibration     1          0.754              1.502              1.020

 1\1\GINC-KATANA3\Freq\RM062X\6-31+G(d)\C1H4O1\Z5358697\18-Mar-2025\0\\
 #N Geom=AllCheck Guess=TCheck SCRF=Check GenChk RM062X/6-31+G(d) Freq\
 \methanol\\0,1\C,0.2914284395,0.7663893289,0.7033834782\O,-0.309841629
 5,2.0018229901,0.3635448301\H,-0.0738140319,0.507117363,1.6983676627\H
 ,1.3857058784,0.839380941,0.7410378624\H,0.0072247582,-0.03315005,0.00
 75279923\H,-0.0079034147,2.270839427,-0.5135618257\\Version=ES64L-G09R
 evD.01\State=1-A\HF=-115.6629054\RMSD=6.043e-10\RMSF=1.070e-04\ZeroPoi
 nt=0.0521807\Thermal=0.0554267\Dipole=0.4857377,-0.3849707,-0.4470023\

 Normal termination of Gaussian 09 at Tue Mar 18 19:12:47 2025.
