 Gaussian 09, Revision D.01,
 Gaussian 09:  ES64L-G09RevD.01 24-Apr-2013

 ---------------------------------
 #m062X/6-31+G(d) OPT Freq=noraman
 ---------------------------------

 -------------------
 2-methylpropan-2-ol
 -------------------
 Symbolic Z-matrix:
 Charge =  0 Multiplicity = 1

 SCF Done:  E(RM062X) =  -233.559669732     A.U. after   11 cycles
 SCF Done:  E(RM062X) =  -233.560598697     A.U. after   10 cycles
 SCF Done:  E(RM062X) =  -233.560654605     A.U. after   10 cycles
 SCF Done:  E(RM062X) =  -233.560657679     A.U. after    8 cycles
 SCF Done:  E(RM062X) =  -233.560657412     A.U. after    8 cycles
 SCF Done:  E(RM062X) =  -233.560657476     A.U. after    7 cycles
 Optimization completed.
    -- Stationary point found.
 Normal termination of Gaussian 09 at Mon Mar 17 18:44:03 2025.

 ---------------------------------------------------------------------
 #N Geom=AllCheck Guess=TCheck SCRF=Check GenChk RM062X/6-31+G(d) Freq
 ---------------------------------------------------------------------

 Structure from the checkpoint file:  "/srv/scratch/z5358697/gauss/Gau-2201560.chk"
 -------------------
 2-methylpropan-2-ol
 -------------------
 Charge =  0 Multiplicity = 1

                         Standard orientation:
 ---------------------------------------------------------------------
 Center     Atomic      Atomic             Coordinates (Angstroms)
 Number     Number       Type             X           Y           Z
 ---------------------------------------------------------------------
      1          6           0        0.686364   -1.256664   -0.512826
      2          6           0       -0.005220   -0.000025    0.015923
      3          6           0       -1.484755   -0.003157   -0.347314
      4          6           0        0.680865    1.259678   -0.512642
      5          8           0        0.023788   -0.000055    1.445614
      6          1           0        1.745577   -1.266695   -0.225971
      7          1           0        0.209180   -2.150587   -0.099415
      8          1           0        0.635570   -1.304379   -1.606005
      9          1           0       -1.974641    0.883258    0.067333
     10          1           0       -1.970957   -0.891482    0.067533
     11          1           0       -1.615921   -0.003525   -1.434039
     12          1           0        0.199798    2.151457   -0.099127
     13          1           0        1.740023    1.274280   -0.225742
     14          1           0        0.629958    1.307360   -1.605825
     15          1           0        0.947587    0.001761    1.737502
 ---------------------------------------------------------------------

 SCF Done:  E(RM062X) =  -233.560657476     A.U. after    1 cycles

 The electronic state is 1-A.
 Alpha  occ. eigenvalues --  -19.64027 -10.60540 -10.53857 -10.53855 -10.53277
 Alpha  occ. eigenvalues --   -1.14342  -0.89208  -0.78617  -0.78489  -0.65423
 Alpha  occ. eigenvalues --   -0.56645  -0.52694  -0.52315  -0.48374  -0.46726
 Alpha  occ. eigenvalues --   -0.44610  -0.43137  -0.42296  -0.41464  -0.38193
 Alpha  occ. eigenvalues --   -0.34257
 Alpha virt. eigenvalues --    0.01996   0.04205   0.04394   0.04960   0.06515
 Alpha virt. eigenvalues --    0.07414   0.07541   0.08385   0.08391   0.09459
 Alpha virt. eigenvalues --    0.12016   0.12600   0.13361   0.15592   0.15611

 Mulliken charges:
               1
     1  C   -0.473560
     2  C   -0.364133
     3  C   -0.502074
     4  C   -0.473500
     5  O   -0.608222
     6  H    0.199138
     7  H    0.226996
     8  H    0.219830
     9  H    0.223792
    10  H    0.223808
    11  H    0.213861
    12  H    0.226994
    13  H    0.199133
    14  H    0.219830
    15  H    0.468108
 Sum of Mulliken charges =   0.00000

 Dipole moment (field-independent basis, Debye):
    X=              1.2987    Y=              0.0026    Z=             -1.1567  Tot=              1.7391
 Quadrupole moment (field-independent basis, Debye-Ang):
   XX=            -32.1106   YY=            -34.1066   ZZ=            -35.2699
   XY=              0.0037   XZ=              3.0755   YZ=              0.0061

  Exact polarizability:  53.688   0.004  52.691   0.496   0.000  51.433
 Approx polarizability:  58.216   0.004  56.144   0.722   0.001  58.977

                      1                      2                      3
                      A                      A                      A
 Frequencies --    181.3096               249.5426               270.0638
 Red. masses --      1.0190                 1.0685                 1.0162
 Frc consts  --      0.0197                 0.0392                 0.0437
 IR Inten    --     10.1013                62.8608                57.1183

                      4                      5                      6
                      A                      A                      A
 Frequencies --    276.9655               343.7008               344.6699
 Red. masses --      1.0426                 2.3111                 2.4541
 Frc consts  --      0.0471                 0.1609                 0.1718
 IR Inten    --      0.0866                 1.1192                 4.8579

                      7                      8                      9
                      A                      A                      A
 Frequencies --    419.9921               467.0192               470.3533
 Red. masses --      2.1580                 2.5028                 2.9243
 Frc consts  --      0.2243                 0.3216                 0.3812
 IR Inten    --      0.2694                10.7767                 9.9572

                     10                     11                     12
                      A                      A                      A
 Frequencies --    772.4007               927.4124               941.5816
 Red. masses --      3.6472                 1.5957                 1.6026
 Frc consts  --      1.2820                 0.8086                 0.8371
 IR Inten    --      2.0318                 0.0192                 0.3558

                     13                     14                     15
                      A                      A                      A
 Frequencies --    961.4036               973.0414              1037.1467
 Red. masses --      1.2059                 2.3261                 1.3841
 Frc consts  --      0.6567                 1.2976                 0.8772
 IR Inten    --      0.0139                33.6993                11.9616

                     16                     17                     18
                      A                      A                      A
 Frequencies --   1054.2027              1170.3546              1273.2664
 Red. masses --      1.4067                 1.4026                 2.9706
 Frc consts  --      0.9211                 1.1319                 2.8375
 IR Inten    --      1.2743                58.6780                63.6642

                     19                     20                     21
                      A                      A                      A
 Frequencies --   1284.1531              1376.3710              1418.2099
 Red. masses --      2.6597                 1.4987                 1.3410
 Frc consts  --      2.5842                 1.6727                 1.5891
 IR Inten    --     18.2965                24.8319                22.0598

                     22                     23                     24
                      A                      A                      A
 Frequencies --   1428.5657              1445.0962              1494.0586
 Red. masses --      1.5322                 1.2802                 1.0466
 Frc consts  --      1.8423                 1.5751                 1.3764
 IR Inten    --     34.0773                 5.1648                 0.0952

                     25                     26                     27
                      A                      A                      A
 Frequencies --   1504.6147              1506.1409              1520.2481
 Red. masses --      1.0457                 1.0438                 1.0683
 Frc consts  --      1.3948                 1.3950                 1.4547
 IR Inten    --      0.0440                 0.0446                 3.8874

                     28                     29                     30
                      A                      A                      A
 Frequencies --   1529.1186              1538.9755              3062.8292
 Red. masses --      1.0987                 1.0639                 1.0361
 Frc consts  --      1.5136                 1.4846                 5.7268
 IR Inten    --      5.3540                11.2032                19.6246

                     31                     32                     33
                      A                      A                      A
 Frequencies --   3066.8526              3076.4629              3134.0237
 Red. masses --      1.0359                 1.0356                 1.1012
 Frc consts  --      5.7407                 5.7748                 6.3725
 IR Inten    --     33.9521                 6.5943                 2.7129

                     34                     35                     36
                      A                      A                      A
 Frequencies --   3140.1203              3153.1480              3153.4207
 Red. masses --      1.1004                 1.1038                 1.1033
 Frc consts  --      6.3927                 6.4657                 6.4642
 IR Inten    --     53.6909                 2.3757                 2.0496

                     37                     38                     39
                      A                      A                      A
 Frequencies --   3158.3158              3160.0933              3807.4458
 Red. masses --      1.1028                 1.1026                 1.0662
 Frc consts  --      6.4811                 6.4871                 9.1068
 IR Inten    --     28.9040                46.3323                17.0096

 - Thermochemistry -
 -------------------
 Temperature   298.150 Kelvin.  Pressure   1.00000 Atm.
 Atom     1 has atomic number  6 and mass  12.00000

 Molecular mass:    74.07317 amu.
 Principal axes and moments of inertia in atomic units:
                           1         2         3
     Eigenvalues --   381.87281 384.05674 399.26011
           X            0.98579   0.00107   0.16799
           Y           -0.00117   1.00000   0.00047
           Z           -0.16799  -0.00066   0.98579
 This molecule is an asymmetric top.
 Rotational symmetry number  1.
 Rotational temperatures (Kelvin)      0.22681     0.22552     0.21694
 Rotational constants (GHZ):           4.72603     4.69915     4.52021
 Zero-point vibrational energy     359434.1 (Joules/Mol)
                                   85.90681 (Kcal/Mol)
 Warning -- explicit consideration of   9 degrees of freedom as
           vibrations may cause significant error
 Vibrational temperatures:    260.86   359.04   388.56   398.49   494.51
          (Kelvin)            495.90   604.27   671.94   676.73  1111.31
                             1334.34  1354.72  1383.24  1399.99  1492.22
                             1516.76  1683.88  1831.94  1847.61  1980.29
                             2040.49  2055.38  2079.17  2149.61  2164.80
                             2167.00  2187.30  2200.06  2214.24  4406.72
                             4412.51  4426.34  4509.16  4517.93  4536.67
                             4537.06  4544.11  4546.66  5478.06

 Zero-point correction=                           0.136901 (Hartree/Particle)
 Thermal correction to Energy=                    0.143669
 Thermal correction to Enthalpy=                  0.144613
 Thermal correction to Gibbs Free Energy=         0.107820
 Sum of electronic and zero-point Energies=           -233.423756
 Sum of electronic and thermal Energies=              -233.416989
 Sum of electronic and thermal Enthalpies=            -233.416045
 Sum of electronic and thermal Free Energies=         -233.452838

                     E (Thermal)             CV                S
                      KCal/Mol        Cal/Mol-Kelvin    Cal/Mol-Kelvin
 Total                   90.153             24.741             77.438
 Electronic               0.000              0.000              0.000
 Translational            0.889              2.981             38.823
 Rotational               0.889              2.981             25.574
 Vibrational             88.376             18.779             13.040
 Vibration     1          0.630              1.865              2.315
 Vibration     2          0.662              1.764              1.734
 Vibration     3          0.674              1.728              1.596
 Vibration     4          0.678              1.716              1.552
 Vibration     5          0.722              1.588              1.195
 Vibration     6          0.723              1.586              1.190
 Vibration     7          0.783              1.427              0.892
 Vibration     8          0.824              1.323              0.746
 Vibration     9          0.827              1.316              0.737

 Optimization completed.
    -- Stationary point found.
 Normal termination of Gaussian 09 at Mon Mar 17 18:46:54 2025.
