 Gaussian 09, Revision D.01,
 Gaussian 09:  ES64L-G09RevD.01 24-Apr-2013

 ---------------------------------
 #m062X/6-31+G(d) OPT Freq=noraman
 ---------------------------------

 -------------
 4-bromophenol
 -------------
 Symbolic Z-matrix:
 Charge =  0 Multiplicity = 1

 SCF Done:  E(RM062X) =  -2878.54431864     A.U. after   14 cycles
 SCF Done:  E(RM062X) =  -2878.54504647     A.U. after   13 cycles
 SCF Done:  E(RM062X) =  -2878.54509796     A.U. after   11 cycles
 SCF Done:  E(RM062X) =  -2878.54510362     A.U. after   10 cycles
 SCF Done:  E(RM062X) =  -2878.54510392     A.U. after   10 cycles
 Optimization completed.
    -- Stationary point found.
 Normal termination of Gaussian 09 at Fri Mar 21 00:33:29 2025.

 ---------------------------------------------------------------------
 #N Geom=AllCheck Guess=TCheck SCRF=Check GenChk RM062X/6-31+G(d) Freq
 ---------------------------------------------------------------------

 Structure from the checkpoint file:  "/srv/scratch/z5358697/gauss/Gau-4065255.chk"
 -------------
 4-bromophenol
 -------------
 Charge =  0 Multiplicity = 1

                         Standard orientation:
 ---------------------------------------------------------------------
 Center     Atomic      Atomic             Coordinates (Angstroms)
 Number     Number       Type             X           Y           Z
 ---------------------------------------------------------------------
      1          6           0        1.753083    1.219621   -0.000155
      2          6           0        0.364173    1.212507   -0.000528
      3          6           0       -0.323575    0.001266   -0.001006
      4          6           0        0.370157   -1.202352   -0.000547
      5          6           0        1.762927   -1.197336   -0.000161
      6          6           0        2.453786    0.013324    0.000047
      7          8           0        3.814177    0.086030    0.000601
      8         35           0       -2.207232   -0.005264    0.000251
      9          1           0        2.310220    2.150763    0.000185
     10          1           0       -0.185903    2.147862   -0.000291
     11          1           0       -0.171272   -2.142707   -0.000328
     12          1           0        2.307057   -2.139116    0.000158
     13          1           0        4.196302   -0.802979    0.000774
 ---------------------------------------------------------------------

 SCF Done:  E(RM062X) =  -2878.54510392     A.U. after    1 cycles

 The electronic state is 1-A.
 Alpha  occ. eigenvalues -- -485.48271 -62.76332 -57.29476 -57.29209 -57.29171
 Alpha  occ. eigenvalues --  -19.69081 -10.63244 -10.61280 -10.57823 -10.57619
 Alpha  occ. eigenvalues --  -10.57397 -10.56745  -8.93429  -6.88831  -6.87798
 Alpha  occ. eigenvalues --   -6.87796  -2.91689  -2.91317  -2.91316  -2.90399
 Alpha  occ. eigenvalues --   -2.90399  -1.20200  -0.98720  -0.90165  -0.86818
 Alpha  occ. eigenvalues --   -0.81513  -0.72971  -0.69474  -0.64180  -0.57742
 Alpha  occ. eigenvalues --   -0.55226  -0.52439  -0.51107  -0.50789  -0.48072
 Alpha  occ. eigenvalues --   -0.44511  -0.43375  -0.42255  -0.36431  -0.34958
 Alpha  occ. eigenvalues --   -0.32764  -0.28062
 Alpha virt. eigenvalues --    0.00151   0.00189   0.01486   0.01607   0.02347
 Alpha virt. eigenvalues --    0.03065   0.04980   0.05275   0.06057   0.06799
 Alpha virt. eigenvalues --    0.07714   0.08069   0.08971   0.09495   0.11430

 Mulliken charges:
               1
     1  C    0.177080
     2  C   -0.631877
     3  C    0.233042
     4  C   -0.687604
     5  C    0.254315
     6  C   -0.020440
     7  O   -0.682245
     8  Br  -0.019453
     9  H    0.229362
    10  H    0.231295
    11  H    0.230326
    12  H    0.200031
    13  H    0.486168
 Sum of Mulliken charges =   0.00000

 Dipole moment (field-independent basis, Debye):
    X=              1.8672    Y=             -1.4304    Z=              0.0011  Tot=              2.3521
 Quadrupole moment (field-independent basis, Debye-Ang):
   XX=            -56.8596   YY=            -52.0871   ZZ=            -63.2912
   XY=             -6.9245   XZ=              0.0006   YZ=             -0.0014

  Exact polarizability: 127.147  -1.131  88.033   0.008   0.000  51.422
 Approx polarizability: 149.939  -0.637 119.977   0.013   0.000  67.160

                      1                      2                      3
                      A                      A                      A
 Frequencies --    130.0613               229.5192               300.8691
 Red. masses --      7.4096                 6.7070                13.9054
 Frc consts  --      0.0738                 0.2082                 0.7416
 IR Inten    --      0.0059                 1.0290                 0.4375

                      4                      5                      6
                      A                      A                      A
 Frequencies --    354.6983               388.6398               424.8029
 Red. masses --      5.4968                 1.1315                 3.8680
 Frc consts  --      0.4075                 0.1007                 0.4113
 IR Inten    --      0.2937               122.4401                11.0330

                      7                      8                      9
                      A                      A                      A
 Frequencies --    438.7356               541.8561               617.8789
 Red. masses --      2.8111                 2.2812                 7.3128
 Frc consts  --      0.3188                 0.3946                 1.6449
 IR Inten    --      2.9949                27.3829                24.6132

                     10                     11                     12
                      A                      A                      A
 Frequencies --    644.4608               780.1123               831.3692
 Red. masses --      7.0241                 2.8877                 1.3224
 Frc consts  --      1.7188                 1.0354                 0.5385
 IR Inten    --      0.5414                 2.5935                15.4300

                     13                     14                     15
                      A                      A                      A
 Frequencies --    846.7899               862.0125               984.1839
 Red. masses --      6.2202                 1.5878                 1.4808
 Frc consts  --      2.6279                 0.6951                 0.8451
 IR Inten    --      0.5619                44.8786                 0.1457

                     16                     17                     18
                      A                      A                      A
 Frequencies --   1005.4049              1020.0517              1119.4610
 Red. masses --      1.4369                 3.8460                 2.3137
 Frc consts  --      0.8558                 2.3578                 1.7083
 IR Inten    --      0.0009                19.4122                17.0511

                     19                     20                     21
                      A                      A                      A
 Frequencies --   1136.8410              1204.2692              1207.8997
 Red. masses --      1.3364                 1.1131                 1.3591
 Frc consts  --      1.0176                 0.9511                 1.1683
 IR Inten    --     17.8226                 4.2185               170.2469

                     22                     23                     24
                      A                      A                      A
 Frequencies --   1320.5916              1334.0268              1373.2549
 Red. masses --      3.5119                 1.7692                 2.6064
 Frc consts  --      3.6085                 1.8551                 2.8959
 IR Inten    --    108.9731                 3.3975                40.1090

                     25                     26                     27
                      A                      A                      A
 Frequencies --   1485.4896              1557.8053              1686.3353
 Red. masses --      3.0392                 2.7436                 6.8689
 Frc consts  --      3.9514                 3.9229                11.5086
 IR Inten    --     26.0928               172.2543                23.0261

                     28                     29                     30
                      A                      A                      A
 Frequencies --   1698.3745              3197.0970              3229.1001
 Red. masses --      6.5450                 1.0905                 1.0891
 Frc consts  --     11.1232                 6.5673                 6.6908
 IR Inten    --     20.3994                10.6432                 0.7871

                     31                     32                     33
                      A                      A                      A
 Frequencies --   3233.3587              3242.1859              3815.9473
 Red. masses --      1.0944                 1.0965                 1.0664
 Frc consts  --      6.7409                 6.7912                 9.1490
 IR Inten    --      0.6977                 0.8953                80.7393

 - Thermochemistry -
 -------------------
 Temperature   298.150 Kelvin.  Pressure   1.00000 Atm.
 Atom     1 has atomic number  6 and mass  12.00000

 Molecular mass:   171.95238 amu.
 Principal axes and moments of inertia in atomic units:
                           1         2         3
     Eigenvalues --   319.054802828.550633147.60520
           X            0.99999  -0.00507   0.00001
           Y            0.00507   0.99999  -0.00001
           Z           -0.00001   0.00001   1.00000
 This molecule is an asymmetric top.
 Rotational symmetry number  1.
 Rotational temperatures (Kelvin)      0.27147     0.03062     0.02752
 Rotational constants (GHZ):           5.65652     0.63804     0.57337
 Zero-point vibrational energy     252672.1 (Joules/Mol)
                                   60.39009 (Kcal/Mol)
 Warning -- explicit consideration of   9 degrees of freedom as
           vibrations may cause significant error
 Vibrational temperatures:    187.13   330.23   432.88   510.33   559.17
          (Kelvin)            611.20   631.24   779.61   888.99   927.23
                             1122.41  1196.15  1218.34  1240.24  1416.02
                             1446.55  1467.63  1610.65  1635.66  1732.67
                             1737.90  1900.03  1919.36  1975.81  2137.29
                             2241.33  2426.26  2443.58  4599.90  4645.95
                             4652.08  4664.78  5490.29

 Zero-point correction=                           0.096238 (Hartree/Particle)
 Thermal correction to Energy=                    0.102913
 Thermal correction to Enthalpy=                  0.103858
 Thermal correction to Gibbs Free Energy=         0.064168
 Sum of electronic and zero-point Energies=          -2878.448866
 Sum of electronic and thermal Energies=             -2878.442190
 Sum of electronic and thermal Enthalpies=           -2878.441246
 Sum of electronic and thermal Free Energies=        -2878.480936

                     E (Thermal)             CV                S
                      KCal/Mol        Cal/Mol-Kelvin    Cal/Mol-Kelvin
 Total                   64.579             25.360             83.535
 Electronic               0.000              0.000              0.000
 Translational            0.889              2.981             41.334
 Rotational               0.889              2.981             29.431
 Vibrational             62.802             19.399             12.770
 Vibration     1          0.612              1.923              2.945
 Vibration     2          0.652              1.796              1.883
 Vibration     3          0.693              1.672              1.412
 Vibration     4          0.731              1.566              1.145
 Vibration     5          0.757              1.494              1.005
 Vibration     6          0.787              1.416              0.876
 Vibration     7          0.799              1.386              0.831
 Vibration     8          0.897              1.158              0.561
 Vibration     9          0.978              0.994              0.420

 Optimization completed.
    -- Stationary point found.
 Normal termination of Gaussian 09 at Fri Mar 21 00:38:58 2025.
