 Gaussian 09, Revision D.01,
 Gaussian 09:  ES64L-G09RevD.01 24-Apr-2013

 ---------------------------------
 #m062X/6-31+G(d) OPT Freq=noraman
 ---------------------------------

 --------------------------
 1,2,3,5-tetrachlorobenzene
 --------------------------
 Symbolic Z-matrix:
 Charge =  0 Multiplicity = 1

 SCF Done:  E(RM062X) =  -2070.41052258     A.U. after   15 cycles
 SCF Done:  E(RM062X) =  -2070.41134418     A.U. after   13 cycles
 SCF Done:  E(RM062X) =  -2070.41144026     A.U. after   12 cycles
 SCF Done:  E(RM062X) =  -2070.41144333     A.U. after   10 cycles
 Optimization completed.
    -- Stationary point found.
 Normal termination of Gaussian 09 at Sat Mar 15 13:26:36 2025.

 ---------------------------------------------------------------------
 #N Geom=AllCheck Guess=TCheck SCRF=Check GenChk RM062X/6-31+G(d) Freq
 ---------------------------------------------------------------------

 Structure from the checkpoint file:  "/srv/scratch/z5358697/gauss/Gau-599726.chk"
 --------------------------
 1,2,3,5-tetrachlorobenzene
 --------------------------
 Charge =  0 Multiplicity = 1

                         Standard orientation:
 ---------------------------------------------------------------------
 Center     Atomic      Atomic             Coordinates (Angstroms)
 Number     Number       Type             X           Y           Z
 ---------------------------------------------------------------------
      1          6           0       -1.166590   -1.210474   -0.000039
      2          6           0       -1.846629    0.000009   -0.000047
      3          6           0       -1.166580    1.210483   -0.000038
      4          6           0        0.224535    1.202582   -0.000047
      5          6           0        0.942903   -0.000002   -0.000065
      6          6           0        0.224525   -1.202582   -0.000053
      7         17           0        1.051229   -2.723058    0.000017
      8         17           0        2.665807   -0.000009    0.000029
      9         17           0        1.051259    2.723048    0.000015
     10         17           0       -3.583852    0.000012    0.000041
     11          1           0       -1.704267   -2.151749   -0.000016
     12          1           0       -1.704244    2.151767   -0.000001
 ---------------------------------------------------------------------

 SCF Done:  E(RM062X) =  -2070.41144333     A.U. after    1 cycles

 The electronic state is 1-A.
 Alpha  occ. eigenvalues -- -102.69782-102.69739-102.69739-102.69546 -10.65867
 Alpha  occ. eigenvalues --  -10.65847 -10.65716 -10.65234 -10.60303 -10.60302
 Alpha  occ. eigenvalues --   -9.84399  -9.84380  -9.84380  -9.84207  -7.56835
 Alpha  occ. eigenvalues --   -7.56807  -7.56807  -7.56626  -7.56131  -7.56111
 Alpha  occ. eigenvalues --   -7.56111  -7.56089  -7.56079  -7.56078  -7.55937
 Alpha  occ. eigenvalues --   -7.55921  -1.06412  -1.01138  -1.00537  -0.97023
 Alpha  occ. eigenvalues --   -0.93150  -0.86219  -0.83889  -0.72594  -0.70770
 Alpha  occ. eigenvalues --   -0.61587  -0.61025  -0.56070  -0.53348  -0.53311
 Alpha  occ. eigenvalues --   -0.53074  -0.48085  -0.47972  -0.46538  -0.45684
 Alpha  occ. eigenvalues --   -0.42187  -0.41747  -0.40701  -0.40187  -0.38784
 Alpha  occ. eigenvalues --   -0.38308  -0.32811  -0.31598
 Alpha virt. eigenvalues --   -0.02457  -0.02076  -0.00389   0.00795   0.02357
 Alpha virt. eigenvalues --    0.02476   0.04042   0.04229   0.05060   0.05207
 Alpha virt. eigenvalues --    0.06451   0.07973   0.08016   0.08478   0.08711

 Mulliken charges:
               1
     1  C   -0.149554
     2  C    0.002569
     3  C   -0.149528
     4  C   -0.480884
     5  C   -0.264157
     6  C   -0.480894
     7  Cl   0.246869
     8  Cl   0.291045
     9  Cl   0.246869
    10  Cl   0.219152
    11  H    0.259257
    12  H    0.259256
 Sum of Mulliken charges =   0.00000

 Dipole moment (field-independent basis, Debye):
    X=             -0.9825    Y=              0.0000    Z=              0.0000  Tot=              0.9825
 Quadrupole moment (field-independent basis, Debye-Ang):
   XX=            -86.0277   YY=            -82.4031   ZZ=            -86.3856
   XY=              0.0000   XZ=              0.0000   YZ=              0.0000

  Exact polarizability: 152.340  -0.002 132.832  -0.058   0.088  61.162
 Approx polarizability: 181.557   0.000 163.828   0.000   0.000  79.461

                      1                      2                      3
                      A                      A                      A
 Frequencies --     69.5590               128.6929               190.7192
 Red. masses --     32.9457                13.4919                24.8038
 Frc consts  --      0.0939                 0.1317                 0.5316
 IR Inten    --      0.0099                 0.0834                 0.2173

                      4                      5                      6
                      A                      A                      A
 Frequencies --    201.5728               206.0200               228.1582
 Red. masses --      4.7292                28.2138                31.5952
 Frc consts  --      0.1132                 0.7056                 0.9690
 IR Inten    --      0.0000                 0.0272                 0.0214

                      7                      8                      9
                      A                      A                      A
 Frequencies --    314.4853               330.3736               385.8904
 Red. masses --      8.1426                26.2247                32.5025
 Frc consts  --      0.4745                 1.6864                 2.8516
 IR Inten    --      0.7708                 0.1229                 0.0028

                     10                     11                     12
                      A                      A                      A
 Frequencies --    440.7246               525.7999               528.3029
 Red. masses --      8.1964                 7.1536                 5.1788
 Frc consts  --      0.9380                 1.1652                 0.8516
 IR Inten    --      3.2569                 0.7479                 0.0010

                     13                     14                     15
                      A                      A                      A
 Frequencies --    569.5171               607.0709               703.4877
 Red. masses --      4.8487                 9.4708                 5.1989
 Frc consts  --      0.9266                 2.0564                 1.5159
 IR Inten    --      3.7562                34.0828                 3.2649

                     16                     17                     18
                      A                      A                      A
 Frequencies --    823.4997               852.7482               879.4927
 Red. masses --     11.5344                11.0098                 1.4522
 Frc consts  --      4.6086                 4.7171                 0.6618
 IR Inten    --     75.7847                35.4219                34.5606

                     19                     20                     21
                      A                      A                      A
 Frequencies --    894.1379              1059.0232              1158.8278
 Red. masses --      1.3644                 6.9404                 1.5435
 Frc consts  --      0.6427                 4.5861                 1.2212
 IR Inten    --      0.0001                19.5853                39.9003

                     22                     23                     24
                      A                      A                      A
 Frequencies --   1217.9671              1226.2672              1307.7392
 Red. masses --      7.8815                 1.3981                11.7377
 Frc consts  --      6.8886                 1.2386                11.8270
 IR Inten    --      3.5361                10.3686                 6.1063

                     25                     26                     27
                      A                      A                      A
 Frequencies --   1434.8254              1470.8879              1642.4526
 Red. masses --      3.8829                 3.6556                 9.4804
 Frc consts  --      4.7098                 4.6599                15.0682
 IR Inten    --     67.9110               120.3559                70.1387

                     28                     29                     30
                      A                      A                      A
 Frequencies --   1656.2144              3247.9812              3248.0154
 Red. masses --      7.3711                 1.0938                 1.0941
 Frc consts  --     11.9129                 6.7986                 6.8008
 IR Inten    --     49.4117                 5.6898                 2.1207

 - Thermochemistry -
 -------------------
 Temperature   298.150 Kelvin.  Pressure   1.00000 Atm.
 Atom     1 has atomic number  6 and mass  12.00000

 Molecular mass:   213.89106 amu.
 Principal axes and moments of inertia in atomic units:
                           1         2         3
     Eigenvalues --  2134.771443093.099025227.87047
           X            1.00000   0.00000   0.00000
           Y            0.00000   1.00000   0.00000
           Z            0.00000   0.00000   1.00000
 This molecule is an asymmetric top.
 Rotational symmetry number  1.
 Warning -- assumption of classical behavior for rotation
           may cause significant error
 Rotational temperatures (Kelvin)      0.04057     0.02800     0.01657
 Rotational constants (GHZ):           0.84540     0.58347     0.34522
 Zero-point vibrational energy     164788.3 (Joules/Mol)
                                   39.38535 (Kcal/Mol)
 Warning -- explicit consideration of  14 degrees of freedom as
           vibrations may cause significant error
 Vibrational temperatures:    100.08   185.16   274.40   290.02   296.42
          (Kelvin)            328.27   452.47   475.33   555.21   634.10
                              756.51   760.11   819.41   873.44  1012.16
                             1184.83  1226.91  1265.39  1286.46  1523.70
                             1667.29  1752.38  1764.32  1881.54  2064.39
                             2116.28  2363.12  2382.92  4673.11  4673.16

 Zero-point correction=                           0.062765 (Hartree/Particle)
 Thermal correction to Energy=                    0.071869
 Thermal correction to Enthalpy=                  0.072813
 Thermal correction to Gibbs Free Energy=         0.026665
 Sum of electronic and zero-point Energies=          -2070.348679
 Sum of electronic and thermal Energies=             -2070.339574
 Sum of electronic and thermal Enthalpies=           -2070.338630
 Sum of electronic and thermal Free Energies=        -2070.384778

                     E (Thermal)             CV                S
                      KCal/Mol        Cal/Mol-Kelvin    Cal/Mol-Kelvin
 Total                   45.099             32.193             97.127
 Electronic               0.000              0.000              0.000
 Translational            0.889              2.981             41.984
 Rotational               0.889              2.981             31.912
 Vibrational             43.321             26.231             23.230
 Vibration     1          0.598              1.969              4.166
 Vibration     2          0.611              1.925              2.965
 Vibration     3          0.634              1.853              2.221
 Vibration     4          0.638              1.838              2.119
 Vibration     5          0.641              1.831              2.079
 Vibration     6          0.651              1.798              1.893
 Vibration     7          0.702              1.646              1.339
 Vibration     8          0.713              1.615              1.258
 Vibration     9          0.755              1.500              1.016
 Vibration    10          0.801              1.381              0.824
 Vibration    11          0.881              1.193              0.597
 Vibration    12          0.883              1.187              0.591
 Vibration    13          0.926              1.097              0.505
 Vibration    14          0.966              1.017              0.438

 Optimization completed.
    -- Stationary point found.
 Normal termination of Gaussian 09 at Sat Mar 15 13:34:38 2025.
