 Gaussian 09, Revision D.01,
 Gaussian 09:  ES64L-G09RevD.01 24-Apr-2013

 ---------------------------------
 #m062X/6-31+G(d) OPT Freq=noraman
 ---------------------------------

 -------------------------
 1,1,1,2-tetrachloroethane
 -------------------------
 Symbolic Z-matrix:
 Charge =  0 Multiplicity = 1

 SCF Done:  E(RM062X) =  -1918.02817124     A.U. after   12 cycles
 SCF Done:  E(RM062X) =  -1918.02936942     A.U. after   11 cycles
 SCF Done:  E(RM062X) =  -1918.02948633     A.U. after   11 cycles
 SCF Done:  E(RM062X) =  -1918.02949301     A.U. after   10 cycles
 SCF Done:  E(RM062X) =  -1918.02950172     A.U. after   10 cycles
 Optimization completed.
    -- Stationary point found.
 Normal termination of Gaussian 09 at Fri Mar 14 15:36:28 2025.

 ---------------------------------------------------------------------
 #N Geom=AllCheck Guess=TCheck SCRF=Check GenChk RM062X/6-31+G(d) Freq
 ---------------------------------------------------------------------

 Structure from the checkpoint file:  "/srv/scratch/z5358697/gauss/Gau-2175775.chk"
 -------------------------
 1,1,1,2-tetrachloroethane
 -------------------------
 Charge =  0 Multiplicity = 1

                         Standard orientation:
 ---------------------------------------------------------------------
 Center     Atomic      Atomic             Coordinates (Angstroms)
 Number     Number       Type             X           Y           Z
 ---------------------------------------------------------------------
      1          6           0        0.734001    0.001690    1.086940
      2          6           0       -0.391397   -0.000085    0.048650
      3         17           0       -0.314878   -1.457116   -0.963332
      4         17           0       -1.923221    0.003452    0.968899
      5         17           0       -0.312586    1.452288   -0.969675
      6         17           0        2.355002    0.000472    0.362967
      7          1           0        0.635363   -0.891773    1.704605
      8          1           0        0.635634    0.897511    1.701244
 ---------------------------------------------------------------------

 SCF Done:  E(RM062X) =  -1918.02950172     A.U. after    1 cycles

 The electronic state is 1-A.
 Alpha  occ. eigenvalues -- -102.70390-102.70005-102.70001-102.68363 -10.75759
 Alpha  occ. eigenvalues --  -10.65298  -9.85118  -9.84722  -9.84719  -9.83053
 Alpha  occ. eigenvalues --   -7.57553  -7.57167  -7.57164  -7.56805  -7.56798
 Alpha  occ. eigenvalues --   -7.56407  -7.56404  -7.56398  -7.56395  -7.55485
 Alpha  occ. eigenvalues --   -7.54772  -7.54746  -1.07851  -0.97948  -0.95173
 Alpha  occ. eigenvalues --   -0.95059  -0.82984  -0.69613  -0.59767  -0.58038
 Alpha  occ. eigenvalues --   -0.56335  -0.51928  -0.49735  -0.43252  -0.43033
 Alpha  occ. eigenvalues --   -0.41353  -0.39921  -0.39659  -0.38655  -0.38428
 Alpha  occ. eigenvalues --   -0.37953
 Alpha virt. eigenvalues --   -0.01044   0.00619   0.01723   0.02493   0.03945
 Alpha virt. eigenvalues --    0.04355   0.04406   0.05896   0.07789   0.08809
 Alpha virt. eigenvalues --    0.09022   0.10115   0.10795   0.11187   0.12045

 Mulliken charges:
               1
     1  C   -0.575468
     2  C   -0.635746
     3  Cl   0.173525
     4  Cl   0.145352
     5  Cl   0.173323
     6  Cl   0.114094
     7  H    0.302451
     8  H    0.302469
 Sum of Mulliken charges =   0.00000

 Dipole moment (field-independent basis, Debye):
    X=             -0.2209    Y=              0.0025    Z=              1.5630  Tot=              1.5786
 Quadrupole moment (field-independent basis, Debye-Ang):
   XX=            -66.3635   YY=            -62.4256   ZZ=            -60.4362
   XY=              0.0015   XZ=              0.1066   YZ=              0.0040

  Exact polarizability:  78.287  -0.012  68.836  -6.858   0.000  64.889
 Approx polarizability:  88.421  -0.018  84.031 -11.916  -0.001  78.575

                      1                      2                      3
                      A                      A                      A
 Frequencies --    103.1175               151.6734               241.8847
 Red. masses --      9.0013                30.5665                25.9453
 Frc consts  --      0.0564                 0.4143                 0.8944
 IR Inten    --      1.2690                 0.5878                 0.1214

                      4                      5                      6
                      A                      A                      A
 Frequencies --    244.6106               312.6744               340.1506
 Red. masses --      7.7565                18.9004                 3.6422
 Frc consts  --      0.2734                 1.0887                 0.2483
 IR Inten    --      0.9863                 1.2151                 0.8938

                      7                      8                      9
                      A                      A                      A
 Frequencies --    389.2254               557.5679               735.4296
 Red. masses --     20.4104                 8.2215                 4.0295
 Frc consts  --      1.8218                 1.5059                 1.2841
 IR Inten    --      1.9843                19.4660                94.0655

                     10                     11                     12
                      A                      A                      A
 Frequencies --    787.3524               850.7435               990.7601
 Red. masses --     10.7565                 6.8256                 1.7642
 Frc consts  --      3.9288                 2.9106                 1.0203
 IR Inten    --    137.0724                39.6625                57.6589

                     13                     14                     15
                      A                      A                      A
 Frequencies --   1084.6148              1249.6141              1343.5228
 Red. masses --      6.6269                 1.0918                 1.2310
 Frc consts  --      4.5932                 1.0045                 1.3092
 IR Inten    --     10.5875                11.4567                11.6997

                     16                     17                     18
                      A                      A                      A
 Frequencies --   1478.8403              3152.1967              3222.3799
 Red. masses --      1.0812                 1.0571                 1.1119
 Frc consts  --      1.3932                 6.1885                 6.8024
 IR Inten    --      7.0711                 4.3307                 0.5283

 - Thermochemistry -
 -------------------
 Temperature   298.150 Kelvin.  Pressure   1.00000 Atm.
 Atom     1 has atomic number  6 and mass  12.00000

 Molecular mass:   165.89106 amu.
 Principal axes and moments of inertia in atomic units:
                           1         2         3
     Eigenvalues --   972.419651649.801731745.94025
           X            0.99993   0.00002   0.01187
           Y           -0.00002   1.00000   0.00029
           Z           -0.01187  -0.00029   0.99993
 This molecule is an asymmetric top.
 Rotational symmetry number  1.
 Warning -- assumption of classical behavior for rotation
           may cause significant error
 Rotational temperatures (Kelvin)      0.08907     0.05250     0.04961
 Rotational constants (GHZ):           1.85593     1.09391     1.03368
 Zero-point vibrational energy     103096.3 (Joules/Mol)
                                   24.64061 (Kcal/Mol)
 Warning -- explicit consideration of   8 degrees of freedom as
           vibrations may cause significant error
 Vibrational temperatures:    148.36   218.22   348.02   351.94   449.87
          (Kelvin)            489.40   560.01   802.21  1058.12  1132.82
                             1224.03  1425.48  1560.52  1797.91  1933.03
                             2127.72  4535.30  4636.28

 Zero-point correction=                           0.039267 (Hartree/Particle)
 Thermal correction to Energy=                    0.046082
 Thermal correction to Enthalpy=                  0.047026
 Thermal correction to Gibbs Free Energy=         0.006533
 Sum of electronic and zero-point Energies=          -1917.990234
 Sum of electronic and thermal Energies=             -1917.983420
 Sum of electronic and thermal Enthalpies=           -1917.982475
 Sum of electronic and thermal Free Energies=        -1918.022969

                     E (Thermal)             CV                S
                      KCal/Mol        Cal/Mol-Kelvin    Cal/Mol-Kelvin
 Total                   28.917             22.288             85.226
 Electronic               0.000              0.000              0.000
 Translational            0.889              2.981             41.227
 Rotational               0.889              2.981             29.417
 Vibrational             27.140             16.326             14.582
 Vibration     1          0.605              1.947              3.395
 Vibration     2          0.619              1.901              2.651
 Vibration     3          0.658              1.776              1.789
 Vibration     4          0.660              1.772              1.769
 Vibration     5          0.701              1.650              1.348
 Vibration     6          0.720              1.595              1.211
 Vibration     7          0.757              1.493              1.003
 Vibration     8          0.913              1.123              0.529

 Normal termination of Gaussian 09 at Fri Mar 14 15:38:05 2025.
