 Gaussian 09, Revision D.01,
 Gaussian 09:  ES64L-G09RevD.01 24-Apr-2013

 ---------------------------------
 #m062X/6-31+G(d) OPT Freq=noraman
 ---------------------------------

 ----------------
 hydrogen sulfide
 ----------------
 Symbolic Z-matrix:
 Charge =  0 Multiplicity = 1

 SCF Done:  E(RM062X) =  -399.337625558     A.U. after    8 cycles
 SCF Done:  E(RM062X) =  -399.337633669     A.U. after    7 cycles
 SCF Done:  E(RM062X) =  -399.337633921     A.U. after    6 cycles
 Optimization completed.
    -- Stationary point found.
 Normal termination of Gaussian 09 at Thu Mar 13 14:54:05 2025.

 ---------------------------------------------------------------------
 #N Geom=AllCheck Guess=TCheck SCRF=Check GenChk RM062X/6-31+G(d) Freq
 ---------------------------------------------------------------------

 Structure from the checkpoint file:  "/srv/scratch/z5358697/gauss/Gau-369588.chk"
 ----------------
 hydrogen sulfide
 ----------------
 Charge =  0 Multiplicity = 1

                         Standard orientation:
 ---------------------------------------------------------------------
 Center     Atomic      Atomic             Coordinates (Angstroms)
 Number     Number       Type             X           Y           Z
 ---------------------------------------------------------------------
      1         16           0        0.000000    0.102722    0.000000
      2          1           0        0.971481   -0.821775    0.000000
      3          1           0       -0.971481   -0.821776    0.000000
 ---------------------------------------------------------------------

 SCF Done:  E(RM062X) =  -399.337633921     A.U. after    1 cycles

 The electronic state is 1-A'.
 Alpha  occ. eigenvalues --  -89.92651  -8.27629  -6.19694  -6.19484  -6.18986
 Alpha  occ. eigenvalues --   -0.83727  -0.51422  -0.42797  -0.31926
 Alpha virt. eigenvalues --    0.01752   0.05727   0.06601   0.06715   0.07552
 Alpha virt. eigenvalues --    0.15606   0.48060   0.49362   0.52872   0.53622
 Alpha virt. eigenvalues --    0.72594   0.78837   0.81844   0.82304   0.84066

 Mulliken charges:
               1
     1  S   -0.243783
     2  H    0.121892
     3  H    0.121892
 Sum of Mulliken charges =   0.00000

 Dipole moment (field-independent basis, Debye):
    X=              0.0000    Y=             -1.4693    Z=              0.0000  Tot=              1.4693
 Quadrupole moment (field-independent basis, Debye-Ang):
   XX=            -12.3315   YY=            -13.7525   ZZ=            -16.9448
   XY=              0.0000   XZ=              0.0000   YZ=              0.0000

  Exact polarizability:  18.164   0.000  16.699   0.000   0.000  17.188
 Approx polarizability:  20.406   0.000  17.711   0.000   0.000  16.255

                      1                      2                      3
                     A'                     A'                     A'
 Frequencies --   1257.7991              2759.9773              2778.5819
 Red. masses --      1.0388                 1.0364                 1.0401
 Frc consts  --      0.9683                 4.6515                 4.7311
 IR Inten    --      4.7497                 5.5879                 6.2421

 - Thermochemistry -
 -------------------
 Temperature   298.150 Kelvin.  Pressure   1.00000 Atm.
 Atom     1 has atomic number 16 and mass  31.97207

 Molecular mass:    33.98772 amu.
 Principal axes and moments of inertia in atomic units:
                           1         2         3
     Eigenvalues --     5.78726   6.79331  12.58057
           X            1.00000  -0.00001   0.00000
           Y            0.00001   1.00000   0.00000
           Z            0.00000   0.00000   1.00000
 This molecule is an asymmetric top.
 Rotational symmetry number  1.
 Rotational temperatures (Kelvin)     14.96630    12.74986     6.88473
 Rotational constants (GHZ):         311.84738   265.66439   143.45464
 Zero-point vibrational energy      40651.3 (Joules/Mol)
                                    9.71588 (Kcal/Mol)
 Vibrational temperatures:   1809.69  3970.99  3997.75
          (Kelvin)

 Zero-point correction=                           0.015483 (Hartree/Particle)
 Thermal correction to Energy=                    0.018329
 Thermal correction to Enthalpy=                  0.019273
 Thermal correction to Gibbs Free Energy=        -0.004721
 Sum of electronic and zero-point Energies=           -399.322151
 Sum of electronic and thermal Energies=              -399.319305
 Sum of electronic and thermal Enthalpies=            -399.318361
 Sum of electronic and thermal Free Energies=         -399.342355

                     E (Thermal)             CV                S
                      KCal/Mol        Cal/Mol-Kelvin    Cal/Mol-Kelvin
 Total                   11.502              6.133             50.501
 Electronic               0.000              0.000              0.000
 Translational            0.889              2.981             36.501
 Rotational               0.889              2.981             13.967
 Vibrational              9.724              0.171              0.033

 Optimization completed.
    -- Stationary point found.
 Normal termination of Gaussian 09 at Thu Mar 13 14:54:08 2025.
