 Gaussian 09, Revision D.01,
 Gaussian 09:  ES64L-G09RevD.01 24-Apr-2013

 ---------------------------------
 #m062X/6-31+G(d) OPT Freq=noraman
 ---------------------------------

 ------
 ethane
 ------
 Symbolic Z-matrix:
 Charge =  0 Multiplicity = 1

 SCF Done:  E(RM062X) =  -79.7736735572     A.U. after    9 cycles
 SCF Done:  E(RM062X) =  -79.7739925295     A.U. after    7 cycles
 SCF Done:  E(RM062X) =  -79.7739926579     A.U. after    6 cycles
 Optimization completed.
    -- Stationary point found.
 Normal termination of Gaussian 09 at Tue Mar 18 22:19:31 2025.

 ---------------------------------------------------------------------
 #N Geom=AllCheck Guess=TCheck SCRF=Check GenChk RM062X/6-31+G(d) Freq
 ---------------------------------------------------------------------

 Structure from the checkpoint file:  "/srv/scratch/z5358697/gauss/Gau-3291155.chk"
 ------
 ethane
 ------
 Charge =  0 Multiplicity = 1

                         Standard orientation:
 ---------------------------------------------------------------------
 Center     Atomic      Atomic             Coordinates (Angstroms)
 Number     Number       Type             X           Y           Z
 ---------------------------------------------------------------------
      1          6           0        0.764014    0.000000    0.000004
      2          6           0       -0.764016   -0.000001   -0.000001
      3          1           0        1.160385    0.549360    0.859600
      4          1           0        1.160127   -1.019247    0.045913
      5          1           0        1.160187    0.469736   -0.905672
      6          1           0       -1.160381   -0.549407   -0.859572
      7          1           0       -1.160112    1.019249   -0.045984
      8          1           0       -1.160192   -0.469684    0.905698
 ---------------------------------------------------------------------

 SCF Done:  E(RM062X) =  -79.7739926579     A.U. after    1 cycles

 The electronic state is 1-A.
 Alpha  occ. eigenvalues --  -10.53393 -10.53358  -0.84901  -0.70080  -0.50290
 Alpha  occ. eigenvalues --   -0.50290  -0.42748  -0.40389  -0.40388
 Alpha virt. eigenvalues --    0.03963   0.04440   0.06609   0.06610   0.09204
 Alpha virt. eigenvalues --    0.09834   0.09835   0.15655   0.24133   0.24137
 Alpha virt. eigenvalues --    0.24186   0.24188   0.29875   0.32383   0.35803

 Mulliken charges:
               1
     1  C   -0.608711
     2  C   -0.608710
     3  H    0.202911
     4  H    0.202892
     5  H    0.202907
     6  H    0.202911
     7  H    0.202891
     8  H    0.202908
 Sum of Mulliken charges =   0.00000

 Dipole moment (field-independent basis, Debye):
    X=              0.0000    Y=              0.0000    Z=              0.0000  Tot=              0.0000
 Quadrupole moment (field-independent basis, Debye-Ang):
   XX=            -15.7202   YY=            -15.0320   ZZ=            -15.0318
   XY=              0.0005   XZ=              0.0004   YZ=              0.0000

  Exact polarizability:  26.166   0.024  24.019  -0.009  -0.009  24.102
 Approx polarizability:  24.925   0.001  25.779   0.001   0.000  25.778

                      1                      2                      3
                      A                      A                      A
 Frequencies --    303.6556               816.5866               824.4891
 Red. masses --      1.0078                 1.0575                 1.0574
 Frc consts  --      0.0548                 0.4155                 0.4235
 IR Inten    --      0.0031                 4.0389                 4.1170

                      4                      5                      6
                      A                      A                      A
 Frequencies --   1029.5418              1224.5461              1227.3694
 Red. masses --      3.1030                 1.4652                 1.4649
 Frc consts  --      1.9379                 1.2945                 1.3002
 IR Inten    --      0.0000                 0.0000                 0.0000

                      7                      8                      9
                      A                      A                      A
 Frequencies --   1418.8372              1448.2237              1528.8740
 Red. masses --      1.1984                 1.2793                 1.0190
 Frc consts  --      1.4214                 1.5809                 1.4034
 IR Inten    --      2.4618                 0.0000                 0.0001

                     10                     11                     12
                      A                      A                      A
 Frequencies --   1529.3499              1529.4928              1529.7057
 Red. masses --      1.0192                 1.0622                 1.0622
 Frc consts  --      1.4045                 1.4640                 1.4644
 IR Inten    --      0.0002                12.3529                12.1953

                     13                     14                     15
                      A                      A                      A
 Frequencies --   3073.2291              3073.8973              3132.7624
 Red. masses --      1.0373                 1.0340                 1.1021
 Frc consts  --      5.7725                 5.7562                 6.3729
 IR Inten    --      0.0012                56.0447                 0.0000

                     16                     17                     18
                      A                      A                      A
 Frequencies --   3134.3139              3154.9277              3156.2998
 Red. masses --      1.1022                 1.1029                 1.1030
 Frc consts  --      6.3797                 6.4680                 6.4742
 IR Inten    --      0.0000                57.3678                56.5754

 - Thermochemistry -
 -------------------
 Temperature   298.150 Kelvin.  Pressure   1.00000 Atm.
 Atom     1 has atomic number  6 and mass  12.00000

 Molecular mass:    30.04695 amu.
 Principal axes and moments of inertia in atomic units:
                           1         2         3
     Eigenvalues --    22.47639  90.33446  90.33483
           X            1.00000   0.00000   0.00000
           Y            0.00000   1.00000   0.00000
           Z            0.00000   0.00000   1.00000
 This molecule is an asymmetric top.
 Rotational symmetry number  1.
 Rotational temperatures (Kelvin)      3.85355     0.95881     0.95881
 Rotational constants (GHZ):          80.29497    19.97844    19.97835
 Zero-point vibrational energy     198197.9 (Joules/Mol)
                                   47.37044 (Kcal/Mol)
 Warning -- explicit consideration of   1 degrees of freedom as
           vibrations may cause significant error
 Vibrational temperatures:    436.89  1174.88  1186.25  1481.28  1761.85
          (Kelvin)           1765.91  2041.39  2083.67  2199.71  2200.39
                             2200.60  2200.90  4421.69  4422.65  4507.34
                             4509.57  4539.23  4541.21

 Zero-point correction=                           0.075490 (Hartree/Particle)
 Thermal correction to Energy=                    0.078977
 Thermal correction to Enthalpy=                  0.079921
 Thermal correction to Gibbs Free Energy=         0.052369
 Sum of electronic and zero-point Energies=            -79.698503
 Sum of electronic and thermal Energies=               -79.695016
 Sum of electronic and thermal Enthalpies=             -79.694072
 Sum of electronic and thermal Free Energies=          -79.721624

                     E (Thermal)             CV                S
                      KCal/Mol        Cal/Mol-Kelvin    Cal/Mol-Kelvin
 Total                   49.559             10.046             57.988
 Electronic               0.000              0.000              0.000
 Translational            0.889              2.981             36.134
 Rotational               0.889              2.981             19.845
 Vibrational             47.781              4.085              2.009
 Vibration     1          0.695              1.667              1.397

 Optimization completed.
    -- Stationary point found.
 Normal termination of Gaussian 09 at Tue Mar 18 22:19:49 2025.
