 Gaussian 09, Revision D.01,
 Gaussian 09:  ES64L-G09RevD.01 24-Apr-2013

 ---------------------------------
 #m062X/6-31+G(d) OPT Freq=noraman
 ---------------------------------

 ------
 phenol
 ------
 Symbolic Z-matrix:
 Charge =  0 Multiplicity = 1

 SCF Done:  E(RM062X) =  -307.340882306     A.U. after   13 cycles
 SCF Done:  E(RM062X) =  -307.341566849     A.U. after   11 cycles
 SCF Done:  E(RM062X) =  -307.341611255     A.U. after   11 cycles
 SCF Done:  E(RM062X) =  -307.341615086     A.U. after    9 cycles
 Optimization completed.
    -- Stationary point found.

 1\1\GINC-KATANA3\FOpt\RM062X\6-31+G(d)\C6H6O1\Z5358697\21-Mar-2025\0\\
 #m062X/6-31+G(d) OPT Freq=noraman\\phenol\\0,1\C,1.8845397889,-1.03590
 12133,-0.1233185806\C,2.9124703616,-1.6262383789,0.6134290794\C,2.8696
 97529,-1.6465871555,2.0034701537\C,1.7859090958,-1.0696862048,2.666289
 6807\C,0.7524184189,-0.4766770827,1.9411132869\C,0.8072153845,-0.46289
 017,0.5484843206\O,1.7933637353,-1.1168890649,4.0300452383\H,1.9236538
 526,-1.023181072,-1.2077315312\H,3.7582613187,-2.0766016738,0.10164213
 34\H,3.6603903427,-2.1013832137,2.5916558266\H,-0.0905162928,-0.028213

 Normal termination of Gaussian 09 at Fri Mar 21 00:41:09 2025.

 ---------------------------------------------------------------------
 #N Geom=AllCheck Guess=TCheck SCRF=Check GenChk RM062X/6-31+G(d) Freq
 ---------------------------------------------------------------------

 Structure from the checkpoint file:  "/srv/scratch/z5358697/gauss/Gau-3826695.chk"
 ------
 phenol
 ------
 Charge =  0 Multiplicity = 1

                         Standard orientation:
 ---------------------------------------------------------------------
 Center     Atomic      Atomic             Coordinates (Angstroms)
 Number     Number       Type             X           Y           Z
 ---------------------------------------------------------------------
      1          6           0        1.853696    0.026953    0.000010
      2          6           0        1.168423   -1.188916   -0.000009
      3          6           0       -0.222049   -1.221240   -0.000008
      4          6           0       -0.937407   -0.023323    0.000009
      5          6           0       -0.263965    1.198200    0.000003
      6          6           0        1.129684    1.216950   -0.000007
      7          8           0       -2.299153   -0.111412    0.000029
      8          1           0        2.938728    0.045621    0.000023
      9          1           0        1.721217   -2.124081   -0.000001
     10          1           0       -0.770615   -2.157762   -0.000045
     11          1           0       -0.826919    2.129505   -0.000003
     12          1           0        1.648177    2.171537   -0.000011
     13          1           0       -2.687651    0.774732   -0.000185
 ---------------------------------------------------------------------

 SCF Done:  E(RM062X) =  -307.341615086     A.U. after    1 cycles

 The electronic state is 1-A.
 Alpha  occ. eigenvalues --  -19.68030 -10.61972 -10.56156 -10.55933 -10.55880
 Alpha  occ. eigenvalues --  -10.55212 -10.55095  -1.19067  -0.96005  -0.85054
 Alpha  occ. eigenvalues --   -0.83896  -0.71423  -0.69040  -0.62675  -0.57766
 Alpha  occ. eigenvalues --   -0.54383  -0.51037  -0.49473  -0.49427  -0.46607
 Alpha  occ. eigenvalues --   -0.42613  -0.41205  -0.40421  -0.31176  -0.28157
 Alpha virt. eigenvalues --    0.01313   0.01630   0.02855   0.03279   0.03717
 Alpha virt. eigenvalues --    0.04686   0.05428   0.07856   0.07926   0.09673
 Alpha virt. eigenvalues --    0.10020   0.10392   0.10748   0.13888   0.14312

 Mulliken charges:
               1
     1  C   -0.207014
     2  C   -0.296025
     3  C   -0.068978
     4  C    0.109371
     5  C   -0.008428
     6  C   -0.354329
     7  O   -0.684831
     8  H    0.204098
     9  H    0.207985
    10  H    0.219471
    11  H    0.189057
    12  H    0.206986
    13  H    0.482636
 Sum of Mulliken charges =   0.00000

 Dipole moment (field-independent basis, Debye):
    X=              0.1018    Y=              1.4374    Z=             -0.0004  Tot=              1.4410
 Quadrupole moment (field-independent basis, Debye-Ang):
   XX=            -37.7726   YY=            -35.6797   ZZ=            -45.7962
   XY=             -4.7354   XZ=              0.0012   YZ=             -0.0003

  Exact polarizability:  87.018  -1.047  79.064   0.000   0.000  40.817
 Approx polarizability: 109.476  -0.639 102.283   0.000   0.000  50.345

                      1                      2                      3
                      A                      A                      A
 Frequencies --    231.2686               393.3613               411.4643
 Red. masses --      4.5054                 1.1171                 3.9767
 Frc consts  --      0.1420                 0.1018                 0.3967
 IR Inten    --      0.4844               121.7383                10.7548

                      4                      5                      6
                      A                      A                      A
 Frequencies --    421.9932               515.5296               534.5771
 Red. masses --      2.8357                 2.6854                 7.2052
 Frc consts  --      0.2975                 0.4205                 1.2131
 IR Inten    --      3.3581                17.0420                 1.4229

                      7                      8                      9
                      A                      A                      A
 Frequencies --    628.1466               692.0789               768.1584
 Red. masses --      6.4000                 2.4167                 1.5604
 Frc consts  --      1.4878                 0.6820                 0.5425
 IR Inten    --      0.4094                20.0131                77.2463

                     10                     11                     12
                      A                      A                      A
 Frequencies --    841.4121               842.4011               909.6617
 Red. masses --      5.7077                 1.2521                 1.4394
 Frc consts  --      2.3808                 0.5235                 0.7018
 IR Inten    --     19.9665                 0.0004                 7.2277

                     13                     14                     15
                      A                      A                      A
 Frequencies --    984.1456              1008.1848              1017.3841
 Red. masses --      1.3488                 1.2765                 5.5146
 Frc consts  --      0.7697                 0.7644                 3.3631
 IR Inten    --      0.0000                 0.1608                 0.1927

                     16                     17                     18
                      A                      A                      A
 Frequencies --   1063.2573              1111.0131              1180.5275
 Red. masses --      2.0115                 1.4608                 1.1323
 Frc consts  --      1.3398                 1.0624                 0.9297
 IR Inten    --      5.7499                11.4339                10.1862

                     19                     20                     21
                      A                      A                      A
 Frequencies --   1198.7113              1213.0974              1317.0128
 Red. masses --      1.1133                 1.2678                 3.5030
 Frc consts  --      0.9425                 1.0992                 3.5799
 IR Inten    --      3.4843               130.8937                93.9942

                     22                     23                     24
                      A                      A                      A
 Frequencies --   1365.8646              1378.7177              1526.8756
 Red. masses --      1.7367                 2.4808                 2.4570
 Frc consts  --      1.9089                 2.7783                 3.3749
 IR Inten    --      7.1063                35.7984                25.8493

                     25                     26                     27
                      A                      A                      A
 Frequencies --   1558.5014              1692.6435              1701.3570
 Red. masses --      2.6244                 6.3132                 6.2220
 Frc consts  --      3.7557                10.6568                10.6114
 IR Inten    --     72.8124                50.2636                44.7786

                     28                     29                     30
                      A                      A                      A
 Frequencies --   3191.3762              3207.7869              3214.5570
 Red. masses --      1.0887                 1.0879                 1.0925
 Frc consts  --      6.5328                 6.5957                 6.6514
 IR Inten    --     10.8778                 0.3082                14.1841

                     31                     32                     33
                      A                      A                      A
 Frequencies --   3228.0459              3234.7884              3815.5715
 Red. masses --      1.0947                 1.0977                 1.0663
 Frc consts  --      6.7212                 6.7674                 9.1466
 IR Inten    --     11.8938                 3.2694                66.1736

 - Thermochemistry -
 -------------------
 Temperature   298.150 Kelvin.  Pressure   1.00000 Atm.
 Atom     1 has atomic number  6 and mass  12.00000

 Molecular mass:    94.04186 amu.
 Principal axes and moments of inertia in atomic units:
                           1         2         3
     Eigenvalues --   318.51241 687.248481005.76089
           X            0.99980  -0.02022   0.00000
           Y            0.02022   0.99980   0.00000
           Z            0.00000   0.00000   1.00000
 This molecule is an asymmetric top.
 Rotational symmetry number  1.
 Rotational temperatures (Kelvin)      0.27193     0.12603     0.08612
 Rotational constants (GHZ):           5.66616     2.62604     1.79440
 Zero-point vibrational energy     277530.5 (Joules/Mol)
                                   66.33138 (Kcal/Mol)
 Warning -- explicit consideration of   6 degrees of freedom as
           vibrations may cause significant error
 Vibrational temperatures:    332.74   565.96   592.00   607.15   741.73
          (Kelvin)            769.14   903.76   995.75  1105.21  1210.60
                             1212.03  1308.80  1415.96  1450.55  1463.79
                             1529.79  1598.50  1698.51  1724.68  1745.37
                             1894.89  1965.17  1983.66  2196.83  2242.33
                             2435.33  2447.87  4591.67  4615.28  4625.02
                             4644.43  4654.13  5489.75

 Zero-point correction=                           0.105706 (Hartree/Particle)
 Thermal correction to Energy=                    0.111155
 Thermal correction to Enthalpy=                  0.112099
 Thermal correction to Gibbs Free Energy=         0.076770
 Sum of electronic and zero-point Energies=           -307.235909
 Sum of electronic and thermal Energies=              -307.230460
 Sum of electronic and thermal Enthalpies=            -307.229516
 Sum of electronic and thermal Free Energies=         -307.264845

                     E (Thermal)             CV                S
                      KCal/Mol        Cal/Mol-Kelvin    Cal/Mol-Kelvin
 Total                   69.751             21.575             74.356
 Electronic               0.000              0.000              0.000
 Translational            0.889              2.981             39.535
 Rotational               0.889              2.981             26.890
 Vibrational             67.973             15.613              7.931
 Vibration     1          0.653              1.793              1.869
 Vibration     2          0.761              1.484              0.987
 Vibration     3          0.775              1.445              0.921
 Vibration     4          0.784              1.422              0.885
 Vibration     5          0.871              1.216              0.620
 Vibration     6          0.890              1.174              0.577

 Optimization completed.
    -- Stationary point found.

 1\1\GINC-KATANA3\Freq\RM062X\6-31+G(d)\C6H6O1\Z5358697\21-Mar-2025\0\\
 #N Geom=AllCheck Guess=TCheck SCRF=Check GenChk RM062X/6-31+G(d) Freq\
 \phenol\\0,1\C,1.8845397889,-1.0359012133,-0.1233185806\C,2.9124703616
 ,-1.6262383789,0.6134290794\C,2.869697529,-1.6465871555,2.0034701537\C
 ,1.7859090958,-1.0696862048,2.6662896807\C,0.7524184189,-0.4766770827,
 1.9411132869\C,0.8072153845,-0.46289017,0.5484843206\O,1.7933637353,-1
 .1168890649,4.0300452383\H,1.9236538526,-1.023181072,-1.2077315312\H,3
 .7582613187,-2.0766016738,0.1016421334\H,3.6603903427,-2.1013832137,2.

 Normal termination of Gaussian 09 at Fri Mar 21 00:44:52 2025.
