 Gaussian 09, Revision D.01,
 Gaussian 09:  ES64L-G09RevD.01 24-Apr-2013

 ---------------------------------
 #m062X/6-31+G(d) OPT Freq=noraman
 ---------------------------------

 -------
 propane
 -------
 Symbolic Z-matrix:
 Charge =  0 Multiplicity = 1

 SCF Done:  E(RM062X) =  -119.066664377     A.U. after   11 cycles
 SCF Done:  E(RM062X) =  -119.067530979     A.U. after    9 cycles
 SCF Done:  E(RM062X) =  -119.067574630     A.U. after    8 cycles
 SCF Done:  E(RM062X) =  -119.067576003     A.U. after    7 cycles
 Optimization completed.
    -- Stationary point found.
 Normal termination of Gaussian 09 at Thu Mar 20 23:05:56 2025.

 ---------------------------------------------------------------------
 #N Geom=AllCheck Guess=TCheck SCRF=Check GenChk RM062X/6-31+G(d) Freq
 ---------------------------------------------------------------------

 Structure from the checkpoint file:  "/srv/scratch/z5358697/gauss/Gau-2180283.chk"
 -------
 propane
 -------
 Charge =  0 Multiplicity = 1

                         Standard orientation:
 ---------------------------------------------------------------------
 Center     Atomic      Atomic             Coordinates (Angstroms)
 Number     Number       Type             X           Y           Z
 ---------------------------------------------------------------------
      1          6           0       -1.267104   -0.261159    0.000002
      2          6           0        0.000077    0.592383    0.000001
      3          6           0        1.266996   -0.261134    0.000002
      4          1           0       -2.171151    0.355946    0.000165
      5          1           0       -1.300719   -0.907576   -0.884432
      6          1           0       -1.300544   -0.907804    0.884269
      7          1           0        0.000010    1.249315   -0.878326
      8          1           0       -0.000002    1.249344    0.878310
      9          1           0        2.171350    0.355595   -0.000069
     10          1           0        1.300577   -0.907719   -0.884337
     11          1           0        1.300665   -0.907642    0.884393
 ---------------------------------------------------------------------

 SCF Done:  E(RM062X) =  -119.067576003     A.U. after    1 cycles

 The electronic state is 1-A.
 Alpha  occ. eigenvalues --  -10.54084 -10.53241 -10.53239  -0.87931  -0.77047
 Alpha  occ. eigenvalues --   -0.66686  -0.52783  -0.50495  -0.46177  -0.44400
 Alpha  occ. eigenvalues --   -0.39630  -0.39568  -0.38756
 Alpha virt. eigenvalues --    0.03589   0.04341   0.04835   0.05979   0.08305
 Alpha virt. eigenvalues --    0.08866   0.09172   0.09976   0.10360   0.12547
 Alpha virt. eigenvalues --    0.14150   0.16157   0.23703   0.24002   0.24447

 Mulliken charges:
               1
     1  C   -0.626646
     2  C   -0.375035
     3  C   -0.626713
     4  H    0.204010
     5  H    0.203215
     6  H    0.203210
     7  H    0.203765
     8  H    0.203764
     9  H    0.204011
    10  H    0.203208
    11  H    0.203211
 Sum of Mulliken charges =   0.00000

 Dipole moment (field-independent basis, Debye):
    X=              0.0001    Y=              0.0889    Z=              0.0000  Tot=              0.0889
 Quadrupole moment (field-independent basis, Debye-Ang):
   XX=            -22.4830   YY=            -22.1717   ZZ=            -21.6777
   XY=             -0.0006   XZ=              0.0000   YZ=              0.0000

  Exact polarizability:  39.170   0.001  35.902   0.000   0.000  34.443
 Approx polarizability:  37.931   0.001  38.954   0.000   0.000  38.740

                      1                      2                      3
                      A                      A                      A
 Frequencies --    226.8210               285.0971               374.7569
 Red. masses --      1.0285                 1.1349                 2.0639
 Frc consts  --      0.0312                 0.0543                 0.1708
 IR Inten    --      0.0000                 0.0014                 0.0192

                      4                      5                      6
                      A                      A                      A
 Frequencies --    755.2934               898.5774               913.4230
 Red. masses --      1.0777                 2.4563                 1.0999
 Frc consts  --      0.3622                 1.1686                 0.5407
 IR Inten    --      2.4453                 0.8451                 0.0000

                      7                      8                      9
                      A                      A                      A
 Frequencies --    942.9650              1088.7329              1190.5759
 Red. masses --      1.1799                 2.2910                 1.7985
 Frc consts  --      0.6182                 1.6000                 1.5020
 IR Inten    --      2.3034                 0.4854                 0.8234

                     10                     11                     12
                      A                      A                      A
 Frequencies --   1222.8172              1326.7345              1380.2399
 Red. masses --      1.6601                 1.1244                 1.3942
 Frc consts  --      1.4625                 1.1662                 1.5649
 IR Inten    --      0.0397                 0.0000                 1.3323

                     13                     14                     15
                      A                      A                      A
 Frequencies --   1431.2344              1442.6848              1517.5413
 Red. masses --      1.3599                 1.2440                 1.0481
 Frc consts  --      1.6413                 1.5256                 1.4220
 IR Inten    --      7.0150                 4.6446                 0.0225

                     16                     17                     18
                      A                      A                      A
 Frequencies --   1518.7302              1522.6293              1537.6267
 Red. masses --      1.0386                 1.0521                 1.0408
 Frc consts  --      1.4114                 1.4372                 1.4499
 IR Inten    --      0.0001                 3.1002                17.3049

                     19                     20                     21
                      A                      A                      A
 Frequencies --   1538.7230              3071.5927              3072.5307
 Red. masses --      1.0820                 1.0356                 1.0466
 Frc consts  --      1.5094                 5.7568                 5.8213
 IR Inten    --      6.5460                35.4485                 0.3224

                     22                     23                     24
                      A                      A                      A
 Frequencies --   3075.5442              3104.5764              3138.6108
 Red. masses --      1.0497                 1.1030                 1.1029
 Frc consts  --      5.8502                 6.2635                 6.4013
 IR Inten    --     50.4021                 3.8045                 0.0135

                     25                     26                     27
                      A                      A                      A
 Frequencies --   3147.9300              3150.1285              3151.6509
 Red. masses --      1.1034                 1.1025                 1.1013
 Frc consts  --      6.4421                 6.4461                 6.4452
 IR Inten    --     92.3850                28.7693                43.7716

 - Thermochemistry -
 -------------------
 Temperature   298.150 Kelvin.  Pressure   1.00000 Atm.
 Atom     1 has atomic number  6 and mass  12.00000

 Molecular mass:    44.06260 amu.
 Principal axes and moments of inertia in atomic units:
                           1         2         3
     Eigenvalues --    61.68713 212.69149 240.75497
           X            1.00000  -0.00001   0.00000
           Y            0.00001   1.00000   0.00000
           Z            0.00000   0.00000   1.00000
 This molecule is an asymmetric top.
 Rotational symmetry number  1.
 Rotational temperatures (Kelvin)      1.40408     0.40723     0.35976
 Rotational constants (GHZ):          29.25636     8.48525     7.49617
 Zero-point vibrational energy     275307.2 (Joules/Mol)
                                   65.80000 (Kcal/Mol)
 Warning -- explicit consideration of   3 degrees of freedom as
           vibrations may cause significant error
 Vibrational temperatures:    326.34   410.19   539.19  1086.70  1292.85
          (Kelvin)           1314.21  1356.71  1566.44  1712.97  1759.36
                             1908.87  1985.85  2059.22  2075.70  2183.40
                             2185.11  2190.72  2212.30  2213.88  4419.33
                             4420.68  4425.02  4466.79  4515.76  4529.16
                             4532.33  4534.52

 Zero-point correction=                           0.104859 (Hartree/Particle)
 Thermal correction to Energy=                    0.109341
 Thermal correction to Enthalpy=                  0.110285
 Thermal correction to Gibbs Free Energy=         0.079247
 Sum of electronic and zero-point Energies=           -118.962717
 Sum of electronic and thermal Energies=              -118.958235
 Sum of electronic and thermal Enthalpies=            -118.957291
 Sum of electronic and thermal Free Energies=         -118.988329

                     E (Thermal)             CV                S
                      KCal/Mol        Cal/Mol-Kelvin    Cal/Mol-Kelvin
 Total                   68.612             14.610             65.326
 Electronic               0.000              0.000              0.000
 Translational            0.889              2.981             37.275
 Rotational               0.889              2.981             22.673
 Vibrational             66.835              8.649              5.378
 Vibration     1          0.650              1.800              1.904
 Vibration     2          0.683              1.701              1.503
 Vibration     3          0.746              1.524              1.060

 Optimization completed.
    -- Stationary point found.
 Normal termination of Gaussian 09 at Thu Mar 20 23:06:43 2025.
