 Gaussian 09, Revision D.01,
 Gaussian 09:  ES64L-G09RevD.01 24-Apr-2013

 ---------------------------------
 #m062X/6-31+G(d) OPT Freq=noraman
 ---------------------------------

 -------
 ethanol
 -------
 Symbolic Z-matrix:
 Charge =  0 Multiplicity = 1

 SCF Done:  E(RM062X) =  -154.960929835     A.U. after   11 cycles
 SCF Done:  E(RM062X) =  -154.961473968     A.U. after    9 cycles
 SCF Done:  E(RM062X) =  -154.961512646     A.U. after    8 cycles
 SCF Done:  E(RM062X) =  -154.961514411     A.U. after    7 cycles
 Optimization completed.
    -- Stationary point found.

 1\1\GINC-KATANA1\FOpt\RM062X\6-31+G(d)\C2H6O1\Z5358697\19-Mar-2025\0\\
 #m062X/6-31+G(d) OPT Freq=noraman\\ethanol\\0,1\C,1.0598550852,-0.2647
 157682,-0.0091650498\C,1.9189614454,0.9163376442,-0.4130927453\O,1.511
 6280903,1.3125962063,-1.7148453811\H,1.3300362514,-0.6154975545,0.9916
 738439\H,0.0040778167,0.0208784385,-0.0085092949\H,1.1935239261,-1.086
 9528218,-0.7178870581\H,2.9805988735,0.6312727367,-0.4116716259\H,1.78
 74702606,1.7425415382,0.2999529257\H,2.0420482508,2.0670395806,-2.0034
 556145\\Version=ES64L-G09RevD.01\State=1-A\HF=-154.9615144\RMSD=7.032e

 Normal termination of Gaussian 09 at Wed Mar 19 12:22:22 2025.

 ---------------------------------------------------------------------
 #N Geom=AllCheck Guess=TCheck SCRF=Check GenChk RM062X/6-31+G(d) Freq
 ---------------------------------------------------------------------

 Structure from the checkpoint file:  "/srv/scratch/z5358697/gauss/Gau-3193203.chk"
 -------
 ethanol
 -------
 Charge =  0 Multiplicity = 1

                         Standard orientation:
 ---------------------------------------------------------------------
 Center     Atomic      Atomic             Coordinates (Angstroms)
 Number     Number       Type             X           Y           Z
 ---------------------------------------------------------------------
      1          6           0       -1.217602   -0.222389   -0.000004
      2          6           0        0.085071    0.551660    0.000004
      3          8           0        1.142708   -0.396446    0.000009
      4          1           0       -2.073242    0.459963   -0.000031
      5          1           0       -1.276313   -0.859943   -0.886744
      6          1           0       -1.276349   -0.859916    0.886752
      7          1           0        0.144168    1.194793    0.889513
      8          1           0        0.144175    1.194799   -0.889499
      9          1           0        1.991085    0.066244   -0.000069
 ---------------------------------------------------------------------

 SCF Done:  E(RM062X) =  -154.961514411     A.U. after    1 cycles

 The electronic state is 1-A.
 Alpha  occ. eigenvalues --  -19.64402 -10.59469 -10.53474  -1.14320  -0.84762
 Alpha  occ. eigenvalues --   -0.69896  -0.59738  -0.54223  -0.47468  -0.44801
 Alpha  occ. eigenvalues --   -0.43304  -0.40025  -0.34721
 Alpha virt. eigenvalues --    0.01849   0.04307   0.05106   0.05997   0.08693
 Alpha virt. eigenvalues --    0.08976   0.09304   0.14849   0.18430   0.21617
 Alpha virt. eigenvalues --    0.21833   0.22573   0.25302   0.27828   0.29113

 Mulliken charges:
               1
     1  C   -0.660849
     2  C   -0.132679
     3  O   -0.683238
     4  H    0.203143
     5  H    0.220622
     6  H    0.220622
     7  H    0.178737
     8  H    0.178735
     9  H    0.474907
 Sum of Mulliken charges =   0.00000

 Dipole moment (field-independent basis, Debye):
    X=              0.1959    Y=              1.7903    Z=             -0.0002  Tot=              1.8010
 Quadrupole moment (field-independent basis, Debye-Ang):
   XX=            -16.9732   YY=            -21.1061   ZZ=            -20.4970
   XY=              2.1690   XZ=             -0.0004   YZ=              0.0000

  Exact polarizability:  31.463  -0.071  28.761   0.000   0.000  27.032
 Approx polarizability:  31.018  -0.564  30.691   0.000   0.000  29.354

                      1                      2                      3
                      A                      A                      A
 Frequencies --    246.9060               326.7748               424.8506
 Red. masses --      1.1442                 1.0776                 2.5918
 Frc consts  --      0.0411                 0.0678                 0.2756
 IR Inten    --     14.3156               142.7295                12.2517

                      4                      5                      6
                      A                      A                      A
 Frequencies --    821.1708               926.6969              1063.4655
 Red. masses --      1.0802                 2.0258                 1.7927
 Frc consts  --      0.4292                 1.0250                 1.1945
 IR Inten    --      0.0032                 8.9234                42.1360

                      7                      8                      9
                      A                      A                      A
 Frequencies --   1146.6110              1191.7578              1286.4424
 Red. masses --      2.7366                 1.5329                 1.3091
 Frc consts  --      2.1198                 1.2828                 1.2764
 IR Inten    --     41.5190                 4.7147                93.4411

                     10                     11                     12
                      A                      A                      A
 Frequencies --   1313.2257              1416.1174              1473.4385
 Red. masses --      1.1008                 1.2355                 1.4972
 Frc consts  --      1.1185                 1.4598                 1.9151
 IR Inten    --      0.0026                 1.2838                17.5155

                     13                     14                     15
                      A                      A                      A
 Frequencies --   1509.8206              1523.5465              1551.0830
 Red. masses --      1.0393                 1.0481                 1.0944
 Frc consts  --      1.3959                 1.4334                 1.5513
 IR Inten    --      7.1159                 3.9942                 1.8423

                     16                     17                     18
                      A                      A                      A
 Frequencies --   3048.7454              3081.0369              3084.2677
 Red. masses --      1.0557                 1.1084                 1.0356
 Frc consts  --      5.7813                 6.1991                 5.8043
 IR Inten    --     67.2798                53.5400                14.3636

                     19                     20                     21
                      A                      A                      A
 Frequencies --   3160.7073              3171.1981              3837.3081
 Red. masses --      1.1021                 1.1040                 1.0667
 Frc consts  --      6.4867                 6.5413                 9.2547
 IR Inten    --     24.2392                27.0686                35.6794

 - Thermochemistry -
 -------------------
 Temperature   298.150 Kelvin.  Pressure   1.00000 Atm.
 Atom     1 has atomic number  6 and mass  12.00000

 Molecular mass:    46.04186 amu.
 Principal axes and moments of inertia in atomic units:
                           1         2         3
     Eigenvalues --    51.51318 191.22304 220.02586
           X            0.99912   0.04202   0.00000
           Y           -0.04202   0.99912   0.00000
           Z            0.00000   0.00000   1.00000
 This molecule is an asymmetric top.
 Rotational symmetry number  1.
 Rotational temperatures (Kelvin)      1.68139     0.45295     0.39365
 Rotational constants (GHZ):          35.03455     9.43789     8.20241
 Zero-point vibrational energy     212966.2 (Joules/Mol)
                                   50.90015 (Kcal/Mol)
 Warning -- explicit consideration of   3 degrees of freedom as
           vibrations may cause significant error
 Vibrational temperatures:    355.24   470.16   611.26  1181.48  1333.31
          (Kelvin)           1530.09  1649.72  1714.67  1850.90  1889.44
                             2037.47  2119.95  2172.29  2192.04  2231.66
                             4386.46  4432.92  4437.57  4547.55  4562.64
                             5521.02

 Zero-point correction=                           0.081115 (Hartree/Particle)
 Thermal correction to Energy=                    0.085348
 Thermal correction to Enthalpy=                  0.086292
 Thermal correction to Gibbs Free Energy=         0.055785
 Sum of electronic and zero-point Energies=           -154.880400
 Sum of electronic and thermal Energies=              -154.876167
 Sum of electronic and thermal Enthalpies=            -154.875222
 Sum of electronic and thermal Free Energies=         -154.905730

                     E (Thermal)             CV                S
                      KCal/Mol        Cal/Mol-Kelvin    Cal/Mol-Kelvin
 Total                   53.557             13.298             64.208
 Electronic               0.000              0.000              0.000
 Translational            0.889              2.981             37.406
 Rotational               0.889              2.981             22.299
 Vibrational             51.779              7.336              4.503
 Vibration     1          0.661              1.768              1.753
 Vibration     2          0.710              1.622              1.276
 Vibration     3          0.787              1.416              0.876

 Optimization completed.
    -- Stationary point found.

 1\1\GINC-KATANA1\Freq\RM062X\6-31+G(d)\C2H6O1\Z5358697\19-Mar-2025\0\\
 #N Geom=AllCheck Guess=TCheck SCRF=Check GenChk RM062X/6-31+G(d) Freq\
 \ethanol\\0,1\C,1.0598550852,-0.2647157682,-0.0091650498\C,1.918961445
 4,0.9163376442,-0.4130927453\O,1.5116280903,1.3125962063,-1.7148453811
 \H,1.3300362514,-0.6154975545,0.9916738439\H,0.0040778167,0.0208784385
 ,-0.0085092949\H,1.1935239261,-1.0869528218,-0.7178870581\H,2.98059887
 35,0.6312727367,-0.4116716259\H,1.7874702606,1.7425415382,0.2999529257
 \H,2.0420482508,2.0670395806,-2.0034556145\\Version=ES64L-G09RevD.01\S

 Normal termination of Gaussian 09 at Wed Mar 19 12:22:55 2025.
