 Gaussian 09, Revision D.01,
 Gaussian 09:  ES64L-G09RevD.01 24-Apr-2013

 ---------------------------------
 #m062X/6-31+G(d) OPT Freq=noraman
 ---------------------------------

 ----------
 ethanamine
 ----------
 Symbolic Z-matrix:
 Charge =  0 Multiplicity = 1

 SCF Done:  E(RM062X) =  -135.089114525     A.U. after   12 cycles
 SCF Done:  E(RM062X) =  -135.092513875     A.U. after   11 cycles
 SCF Done:  E(RM062X) =  -135.095947205     A.U. after   12 cycles
 SCF Done:  E(RM062X) =  -135.095095201     A.U. after   12 cycles
 SCF Done:  E(RM062X) =  -135.097265464     A.U. after   10 cycles
 SCF Done:  E(RM062X) =  -135.097864099     A.U. after   10 cycles
 SCF Done:  E(RM062X) =  -135.098224283     A.U. after   10 cycles
 SCF Done:  E(RM062X) =  -135.098245527     A.U. after    9 cycles
 SCF Done:  E(RM062X) =  -135.098248868     A.U. after    9 cycles
 Optimization completed.
    -- Stationary point found.

 1\1\GINC-KATANA1\FOpt\RM062X\6-31+G(d)\C2H7N1\Z5358697\20-Mar-2025\0\\
 #m062X/6-31+G(d) OPT Freq=noraman\\ethanamine\\0,1\C,0.4308505859,0.17
 61648519,0.9765343599\C,1.2348276852,-1.0173605307,1.4935605629\N,2.39
 2795637,-1.3936333367,0.6845648227\H,-0.4190324558,0.3997826825,1.6311
 162072\H,1.0595000202,1.0723097934,0.9194416024\H,0.0408111024,-0.0245
 207385,-0.0280475559\H,0.5867595831,-1.8974990621,1.5689193101\H,1.595
 2476953,-0.8117278617,2.5075332551\H,3.044078736,-0.6150727143,0.61127
 77873\H,2.1042614108,-1.6280430839,-0.2628003516\\Version=ES64L-G09Rev

 Normal termination of Gaussian 09 at Thu Mar 20 15:37:28 2025.

 ---------------------------------------------------------------------
 #N Geom=AllCheck Guess=TCheck SCRF=Check GenChk RM062X/6-31+G(d) Freq
 ---------------------------------------------------------------------

 Structure from the checkpoint file:  "/srv/scratch/z5358697/gauss/Gau-3952588.chk"
 ----------
 ethanamine
 ----------
 Charge =  0 Multiplicity = 1

                         Standard orientation:
 ---------------------------------------------------------------------
 Center     Atomic      Atomic             Coordinates (Angstroms)
 Number     Number       Type             X           Y           Z
 ---------------------------------------------------------------------
      1          6           0       -1.235945   -0.264614    0.000017
      2          6           0        0.042692    0.574006   -0.000082
      3          7           0        1.292358   -0.184467   -0.000069
      4          1           0       -2.129969    0.369031   -0.000013
      5          1           0       -1.277528   -0.909231   -0.885576
      6          1           0       -1.277552   -0.908729    0.886005
      7          1           0        0.056785    1.230401    0.876994
      8          1           0        0.056767    1.230452   -0.877128
      9          1           0        1.341948   -0.789026   -0.817226
     10          1           0        1.342561   -0.787987    0.817820
 ---------------------------------------------------------------------

 SCF Done:  E(RM062X) =  -135.098248868     A.U. after    1 cycles

 The electronic state is 1-A.
 Alpha  occ. eigenvalues --  -14.74226 -10.56854 -10.53709  -0.98734  -0.82492
 Alpha  occ. eigenvalues --   -0.69647  -0.57401  -0.50836  -0.48125  -0.47460
 Alpha  occ. eigenvalues --   -0.42474  -0.40219  -0.30248
 Alpha virt. eigenvalues --    0.02514   0.04668   0.04949   0.05652   0.08540
 Alpha virt. eigenvalues --    0.09432   0.09459   0.11791   0.14439   0.14752
 Alpha virt. eigenvalues --    0.17667   0.23409   0.23767   0.26130   0.26491

 Mulliken charges:
               1
     1  C   -0.634739
     2  C   -0.297615
     3  N   -0.840046
     4  H    0.206886
     5  H    0.200346
     6  H    0.200348
     7  H    0.204392
     8  H    0.204410
     9  H    0.377990
    10  H    0.378027
 Sum of Mulliken charges =   0.00000

 Dipole moment (field-independent basis, Debye):
    X=             -1.1867    Y=             -0.9243    Z=              0.0012  Tot=              1.5042
 Quadrupole moment (field-independent basis, Debye-Ang):
   XX=            -25.2386   YY=            -20.3514   ZZ=            -19.2852
   XY=             -2.5768   XZ=              0.0029   YZ=              0.0013

  Exact polarizability:  36.770  -0.317  33.233   0.000  -0.001  31.484
 Approx polarizability:  35.501  -0.940  35.656   0.000   0.000  35.512

                      1                      2                      3
                      A                      A                      A
 Frequencies --    257.9386               302.8347               410.3879
 Red. masses --      1.0235                 1.1582                 2.1321
 Frc consts  --      0.0401                 0.0626                 0.2116
 IR Inten    --     16.0424                44.2374                 9.3333

                      4                      5                      6
                      A                      A                      A
 Frequencies --    781.5663               872.8522               908.9518
 Red. masses --      1.0906                 1.5934                 1.6151
 Frc consts  --      0.3925                 0.7153                 0.7862
 IR Inten    --      0.4767               181.6311                16.0677

                      7                      8                      9
                      A                      A                      A
 Frequencies --   1014.4527              1100.6242              1168.9895
 Red. masses --      1.1129                 2.8217                 2.2518
 Frc consts  --      0.6748                 2.0139                 1.8130
 IR Inten    --      1.2289                33.9896                10.3381

                     10                     11                     12
                      A                      A                      A
 Frequencies --   1281.0312              1397.3669              1401.8986
 Red. masses --      1.4086                 1.2924                 1.1553
 Frc consts  --      1.3619                 1.4868                 1.3378
 IR Inten    --      0.0469                14.0197                 0.0772

                     13                     14                     15
                      A                      A                      A
 Frequencies --   1431.9898              1512.4336              1523.0673
 Red. masses --      1.3024                 1.0494                 1.0445
 Frc consts  --      1.5735                 1.4143                 1.4276
 IR Inten    --     15.5233                 0.2791                 9.6014

                     16                     17                     18
                      A                      A                      A
 Frequencies --   1529.7765              1705.4087              3067.1633
 Red. masses --      1.0840                 1.0909                 1.0355
 Frc consts  --      1.4947                 1.8694                 5.7393
 IR Inten    --      3.6836                37.0065                21.1818

                     19                     20                     21
                      A                      A                      A
 Frequencies --   3089.6497              3122.0971              3145.0097
 Red. masses --      1.0606                 1.1041                 1.1016
 Frc consts  --      5.9653                 6.3407                 6.4200
 IR Inten    --     33.8955                 1.3804                40.1135

                     22                     23                     24
                      A                      A                      A
 Frequencies --   3148.6347              3516.3526              3605.1004
 Red. masses --      1.1053                 1.0494                 1.0935
 Frc consts  --      6.4562                 7.6453                 8.3736
 IR Inten    --     60.9258                 0.2524                 1.6831

 - Thermochemistry -
 -------------------
 Temperature   298.150 Kelvin.  Pressure   1.00000 Atm.
 Atom     1 has atomic number  6 and mass  12.00000

 Molecular mass:    45.05785 amu.
 Principal axes and moments of inertia in atomic units:
                           1         2         3
     Eigenvalues --    56.58767 205.85597 230.45270
           X            0.99995  -0.00988   0.00001
           Y            0.00988   0.99995   0.00003
           Z           -0.00001  -0.00003   1.00000
 This molecule is an asymmetric top.
 Rotational symmetry number  1.
 Rotational temperatures (Kelvin)      1.53061     0.42075     0.37584
 Rotational constants (GHZ):          31.89283     8.76701     7.83129
 Zero-point vibrational energy     247002.4 (Joules/Mol)
                                   59.03499 (Kcal/Mol)
 Warning -- explicit consideration of   3 degrees of freedom as
           vibrations may cause significant error
 Vibrational temperatures:    371.12   435.71   590.46  1124.50  1255.84
          (Kelvin)           1307.78  1459.57  1583.55  1681.91  1843.12
                             2010.50  2017.02  2060.31  2176.05  2191.35
                             2201.00  2453.70  4412.96  4445.31  4492.00
                             4524.96  4530.18  5059.24  5186.93

 Zero-point correction=                           0.094078 (Hartree/Particle)
 Thermal correction to Energy=                    0.098426
 Thermal correction to Enthalpy=                  0.099370
 Thermal correction to Gibbs Free Energy=         0.068637
 Sum of electronic and zero-point Energies=           -135.004171
 Sum of electronic and thermal Energies=              -134.999823
 Sum of electronic and thermal Enthalpies=            -134.998879
 Sum of electronic and thermal Free Energies=         -135.029612

                     E (Thermal)             CV                S
                      KCal/Mol        Cal/Mol-Kelvin    Cal/Mol-Kelvin
 Total                   61.763             14.111             64.684
 Electronic               0.000              0.000              0.000
 Translational            0.889              2.981             37.342
 Rotational               0.889              2.981             22.511
 Vibrational             59.986              8.149              4.831
 Vibration     1          0.667              1.749              1.676
 Vibration     2          0.694              1.668              1.401
 Vibration     3          0.775              1.448              0.925

 Optimization completed.
    -- Stationary point found.

 1\1\GINC-KATANA1\Freq\RM062X\6-31+G(d)\C2H7N1\Z5358697\20-Mar-2025\0\\
 #N Geom=AllCheck Guess=TCheck SCRF=Check GenChk RM062X/6-31+G(d) Freq\
 \ethanamine\\0,1\C,0.4308505859,0.1761648519,0.9765343599\C,1.23482768
 52,-1.0173605307,1.4935605629\N,2.392795637,-1.3936333367,0.6845648227
 \H,-0.4190324558,0.3997826825,1.6311162072\H,1.0595000202,1.0723097934
 ,0.9194416024\H,0.0408111024,-0.0245207385,-0.0280475559\H,0.586759583
 1,-1.8974990621,1.5689193101\H,1.5952476953,-0.8117278617,2.5075332551
 \H,3.044078736,-0.6150727143,0.6112777873\H,2.1042614108,-1.6280430839

 Normal termination of Gaussian 09 at Thu Mar 20 15:38:09 2025.
