 Gaussian 09, Revision D.01,
 Gaussian 09:  ES64L-G09RevD.01 24-Apr-2013

 ---------------------------------
 #m062X/6-31+G(d) OPT Freq=noraman
 ---------------------------------

 ------------
 benzonitrile
 ------------
 Symbolic Z-matrix:
 Charge =  0 Multiplicity = 1

 SCF Done:  E(RM062X) =  -324.361939013     A.U. after   14 cycles
 SCF Done:  E(RM062X) =  -324.362319695     A.U. after   11 cycles
 SCF Done:  E(RM062X) =  -324.362338808     A.U. after   10 cycles
 Optimization completed.
    -- Stationary point found.

 1\1\GINC-KATANA3\FOpt\RM062X\6-31+G(d)\C7H5N1\Z5358697\17-Mar-2025\0\\
 #m062X/6-31+G(d) OPT Freq=noraman\\benzonitrile\\0,1\C,1.8849048084,-1
 .0368568717,-0.11291016\C,2.9218254687,-1.6318255668,0.6052924258\C,2.
 8845605326,-1.6556607388,1.9956010729\C,1.7997942797,-1.0786690955,2.6
 655775839\C,0.7575100358,-0.4808297075,1.9481236604\C,0.8054063193,-0.
 4628403833,0.5580496224\C,1.7556599549,-1.1003815096,4.1059468555\N,1.
 7201730974,-1.1177880162,5.2627268428\H,1.9181328588,-1.0205404915,-1.
 1981869499\H,3.761746707,-2.0784825826,0.0824314283\H,3.6848235325,-2.

 Normal termination of Gaussian 09 at Mon Mar 17 15:09:29 2025.

 ---------------------------------------------------------------------
 #N Geom=AllCheck Guess=TCheck SCRF=Check GenChk RM062X/6-31+G(d) Freq
 ---------------------------------------------------------------------

 Structure from the checkpoint file:  "/srv/scratch/z5358697/gauss/Gau-2714332.chk"
 ------------
 benzonitrile
 ------------
 Charge =  0 Multiplicity = 1

                         Standard orientation:
 ---------------------------------------------------------------------
 Center     Atomic      Atomic             Coordinates (Angstroms)
 Number     Number       Type             X           Y           Z
 ---------------------------------------------------------------------
      1          6           0        2.176499   -0.000008   -0.000012
      2          6           0        1.481518    1.209127    0.000015
      3          6           0        0.090519    1.215202   -0.000014
      4          6           0       -0.603606    0.000008   -0.000030
      5          6           0        0.090506   -1.215194   -0.000002
      6          6           0        1.481508   -1.209135    0.000004
      7          6           0       -2.044815    0.000023   -0.000001
      8          7           0       -3.202270   -0.000016    0.000015
      9          1           0        3.262407   -0.000022    0.000016
     10          1           0        2.023076    2.149908    0.000055
     11          1           0       -0.462706    2.148963    0.000005
     12          1           0       -0.462714   -2.148955    0.000025
     13          1           0        2.023065   -2.149916    0.000033
 ---------------------------------------------------------------------

 SCF Done:  E(RM062X) =  -324.362338808     A.U. after    1 cycles

 The electronic state is 1-A.
 Alpha  occ. eigenvalues --  -14.77579 -10.61154 -10.59783 -10.58976 -10.58975
 Alpha  occ. eigenvalues --  -10.58511 -10.58301 -10.58287  -1.02548  -0.99133
 Alpha  occ. eigenvalues --   -0.88877  -0.87564  -0.74393  -0.72126  -0.64971
 Alpha  occ. eigenvalues --   -0.58662  -0.55356  -0.53426  -0.51937  -0.48463
 Alpha  occ. eigenvalues --   -0.45812  -0.44105  -0.43500  -0.42242  -0.40400
 Alpha  occ. eigenvalues --   -0.33645  -0.32724
 Alpha virt. eigenvalues --   -0.02889  -0.00533   0.00731   0.02558   0.02633
 Alpha virt. eigenvalues --    0.04507   0.04726   0.04985   0.07015   0.07139
 Alpha virt. eigenvalues --    0.07954   0.08337   0.08556   0.08954   0.10127

 Mulliken charges:
               1
     1  C   -0.184660
     2  C   -0.134354
     3  C   -0.223616
     4  C    0.675648
     5  C   -0.223553
     6  C   -0.134373
     7  C   -0.453091
     8  N   -0.455340
     9  H    0.218193
    10  H    0.220375
    11  H    0.237197
    12  H    0.237198
    13  H    0.220375
 Sum of Mulliken charges =   0.00000

 Dipole moment (field-independent basis, Debye):
    X=              4.6426    Y=              0.0000    Z=              0.0001  Tot=              4.6426
 Quadrupole moment (field-independent basis, Debye-Ang):
   XX=            -56.3186   YY=            -39.5097   ZZ=            -49.6926
   XY=             -0.0002   XZ=              0.0003   YZ=              0.0000

  Exact polarizability: 116.311   0.000  81.071   0.000   0.000  43.798
 Approx polarizability: 146.048   0.001 106.739   0.000   0.000  54.718

                      1                      2                      3
                      A                      A                      A
 Frequencies --    145.6629               159.1810               389.9886
 Red. masses --      5.8045                 6.6178                 4.6482
 Frc consts  --      0.0726                 0.0988                 0.4165
 IR Inten    --      1.5093                 4.3475                 0.3423

                      4                      5                      6
                      A                      A                      A
 Frequencies --    409.0736               462.5548               560.9227
 Red. masses --      2.8648                 8.4439                 7.9276
 Frc consts  --      0.2825                 1.0644                 1.4696
 IR Inten    --      0.0000                 0.0053                 0.1571

                      7                      8                      9
                      A                      A                      A
 Frequencies --    568.7209               634.6045               703.9573
 Red. masses --      4.0839                 6.7289                 2.0687
 Frc consts  --      0.7783                 1.5966                 0.6040
 IR Inten    --     18.5268                 0.1438                33.3164

                     10                     11                     12
                      A                      A                      A
 Frequencies --    775.5820               778.9066               873.5519
 Red. masses --      6.0918                 1.6658                 1.2465
 Frc consts  --      2.1590                 0.5955                 0.5604
 IR Inten    --      2.0587                51.7027                 0.0000

                     13                     14                     15
                      A                      A                      A
 Frequencies --    960.0439              1008.0829              1022.0224
 Red. masses --      1.3781                 1.3762                 6.0982
 Frc consts  --      0.7483                 0.8240                 3.7529
 IR Inten    --      3.2969                 0.0000                 0.7470

                     16                     17                     18
                      A                      A                      A
 Frequencies --   1031.0907              1066.2831              1119.8299
 Red. masses --      1.3115                 2.1777                 1.4849
 Frc consts  --      0.8215                 1.4588                 1.0971
 IR Inten    --      0.0485                 3.5644                 4.0608

                     19                     20                     21
                      A                      A                      A
 Frequencies --   1190.1651              1209.6257              1232.7745
 Red. masses --      1.1112                 1.1543                 3.2899
 Frc consts  --      0.9274                 0.9951                 2.9458
 IR Inten    --      0.4055                 1.1061                 0.3751

                     22                     23                     24
                      A                      A                      A
 Frequencies --   1342.0890              1365.0554              1501.2022
 Red. masses --      2.1405                 2.2590                 2.3659
 Frc consts  --      2.2716                 2.4801                 3.1414
 IR Inten    --      1.2549                 2.3483                 7.2881

                     25                     26                     27
                      A                      A                      A
 Frequencies --   1547.2495              1671.8770              1694.4014
 Red. masses --      2.3641                 6.0942                 5.9799
 Frc consts  --      3.3345                10.0363                10.1152
 IR Inten    --      9.8625                 0.6297                 0.4958

                     28                     29                     30
                      A                      A                      A
 Frequencies --   2403.4117              3211.1334              3221.8912
 Red. masses --     12.6874                 1.0868                 1.0899
 Frc consts  --     43.1798                 6.6025                 6.6662
 IR Inten    --     33.3259                 0.1799                 2.9666

                     31                     32                     33
                      A                      A                      A
 Frequencies --   3228.0672              3236.8962              3239.5789
 Red. masses --      1.0936                 1.0962                 1.0988
 Frc consts  --      6.7141                 6.7672                 6.7943
 IR Inten    --      6.6381                 4.3225                 2.0818

 - Thermochemistry -
 -------------------
 Temperature   298.150 Kelvin.  Pressure   1.00000 Atm.
 Atom     1 has atomic number  6 and mass  12.00000

 Molecular mass:   103.04220 amu.
 Principal axes and moments of inertia in atomic units:
                           1         2         3
     Eigenvalues --   318.373961167.306831485.68079
           X            1.00000   0.00000   0.00000
           Y            0.00000   1.00000   0.00000
           Z            0.00000   0.00000   1.00000
 This molecule is an asymmetric top.
 Rotational symmetry number  1.
 Rotational temperatures (Kelvin)      0.27205     0.07420     0.05830
 Rotational constants (GHZ):           5.66862     1.54607     1.21476
 Zero-point vibrational energy     262972.0 (Joules/Mol)
                                   62.85181 (Kcal/Mol)
 Warning -- explicit consideration of   7 degrees of freedom as
           vibrations may cause significant error
 Vibrational temperatures:    209.58   229.03   561.11   588.56   665.51
          (Kelvin)            807.04   818.26   913.05  1012.84  1115.89
                             1120.67  1256.84  1381.29  1450.40  1470.46
                             1483.51  1534.14  1611.18  1712.38  1740.38
                             1773.69  1930.96  1964.01  2159.89  2226.14
                             2405.46  2437.86  3457.97  4620.10  4635.58
                             4644.46  4657.17  4661.03

 Zero-point correction=                           0.100161 (Hartree/Particle)
 Thermal correction to Energy=                    0.106265
 Thermal correction to Enthalpy=                  0.107209
 Thermal correction to Gibbs Free Energy=         0.069858
 Sum of electronic and zero-point Energies=           -324.262178
 Sum of electronic and thermal Energies=              -324.256074
 Sum of electronic and thermal Enthalpies=            -324.255129
 Sum of electronic and thermal Free Energies=         -324.292480

                     E (Thermal)             CV                S
                      KCal/Mol        Cal/Mol-Kelvin    Cal/Mol-Kelvin
 Total                   66.682             23.072             78.612
 Electronic               0.000              0.000              0.000
 Translational            0.889              2.981             39.807
 Rotational               0.889              2.981             27.803
 Vibrational             64.905             17.110             11.001
 Vibration     1          0.617              1.907              2.728
 Vibration     2          0.621              1.892              2.560
 Vibration     3          0.758              1.492              1.000
 Vibration     4          0.773              1.451              0.930
 Vibration     5          0.820              1.333              0.759
 Vibration     6          0.917              1.116              0.522
 Vibration     7          0.925              1.099              0.507

 Optimization completed.
    -- Stationary point found.

 1\1\GINC-KATANA3\Freq\RM062X\6-31+G(d)\C7H5N1\Z5358697\17-Mar-2025\0\\
 #N Geom=AllCheck Guess=TCheck SCRF=Check GenChk RM062X/6-31+G(d) Freq\
 \benzonitrile\\0,1\C,1.8849048084,-1.0368568717,-0.11291016\C,2.921825
 4687,-1.6318255668,0.6052924258\C,2.8845605326,-1.6556607388,1.9956010
 729\C,1.7997942797,-1.0786690955,2.6655775839\C,0.7575100358,-0.480829
 7075,1.9481236604\C,0.8054063193,-0.4628403833,0.5580496224\C,1.755659
 9549,-1.1003815096,4.1059468555\N,1.7201730974,-1.1177880162,5.2627268
 428\H,1.9181328588,-1.0205404915,-1.1981869499\H,3.761746707,-2.078482

 Normal termination of Gaussian 09 at Mon Mar 17 15:14:09 2025.
