 Gaussian 09, Revision D.01,
 Gaussian 09:  ES64L-G09RevD.01 24-Apr-2013

 ---------------------------------
 #m062X/6-31+G(d) OPT Freq=noraman
 ---------------------------------

 -------------------
 1,2-dichlorobenzene
 -------------------
 Symbolic Z-matrix:
 Charge =  0 Multiplicity = 1

 SCF Done:  E(RM062X) =  -1151.27991398     A.U. after   14 cycles
 SCF Done:  E(RM062X) =  -1151.28048611     A.U. after   11 cycles
 SCF Done:  E(RM062X) =  -1151.28051666     A.U. after   11 cycles
 SCF Done:  E(RM062X) =  -1151.28051776     A.U. after    9 cycles
 Optimization completed.
    -- Stationary point found.
 Normal termination of Gaussian 09 at Sun Mar 16 19:41:57 2025.

 ---------------------------------------------------------------------
 #N Geom=AllCheck Guess=TCheck SCRF=Check GenChk RM062X/6-31+G(d) Freq
 ---------------------------------------------------------------------

 Structure from the checkpoint file:  "/srv/scratch/z5358697/gauss/Gau-2384614.chk"
 -------------------
 1,2-dichlorobenzene
 -------------------
 Charge =  0 Multiplicity = 1

                         Standard orientation:
 ---------------------------------------------------------------------
 Center     Atomic      Atomic             Coordinates (Angstroms)
 Number     Number       Type             X           Y           Z
 ---------------------------------------------------------------------
      1          6           0        2.385166   -0.696829    0.000000
      2          6           0        2.385163    0.696835    0.000000
      3          6           0        1.180549    1.391763    0.000000
      4          6           0       -0.028684    0.698414    0.000000
      5          6           0       -0.028682   -0.698413   -0.000001
      6          6           0        1.180553   -1.391759    0.000000
      7         17           0       -1.512004   -1.597007    0.000000
      8         17           0       -1.512011    1.597002    0.000000
      9          1           0        3.320662   -1.247134    0.000001
     10          1           0        3.320657    1.247144    0.000000
     11          1           0        1.161276    2.476787    0.000000
     12          1           0        1.161283   -2.476783    0.000000
 ---------------------------------------------------------------------

 SCF Done:  E(RM062X) =  -1151.28051776     A.U. after    1 cycles

 The electronic state is 1-A.
 Alpha  occ. eigenvalues -- -102.68208-102.68208 -10.63670 -10.63596 -10.58338
 Alpha  occ. eigenvalues --  -10.58337 -10.57949 -10.57873  -9.82856  -9.82855
 Alpha  occ. eigenvalues --   -7.55276  -7.55275  -7.54593  -7.54593  -7.54565
 Alpha  occ. eigenvalues --   -7.54564  -1.03073  -0.96599  -0.95020  -0.85794
 Alpha  occ. eigenvalues --   -0.83571  -0.71857  -0.69489  -0.60882  -0.56493
 Alpha  occ. eigenvalues --   -0.55138  -0.51450  -0.51266  -0.49923  -0.44589
 Alpha  occ. eigenvalues --   -0.44411  -0.41980  -0.40973  -0.39691  -0.37667
 Alpha  occ. eigenvalues --   -0.32251  -0.30802
 Alpha virt. eigenvalues --   -0.00466  -0.00124   0.01449   0.02036   0.02649
 Alpha virt. eigenvalues --    0.04079   0.04436   0.06044   0.06535   0.07136
 Alpha virt. eigenvalues --    0.08107   0.08528   0.09433   0.09719   0.10034

 Mulliken charges:
               1
     1  C   -0.148693
     2  C   -0.148692
     3  C   -0.314674
     4  C   -0.195066
     5  C   -0.195071
     6  C   -0.314678
     7  Cl   0.203892
     8  Cl   0.203890
     9  H    0.219595
    10  H    0.219595
    11  H    0.234950
    12  H    0.234950
 Sum of Mulliken charges =   0.00000

 Dipole moment (field-independent basis, Debye):
    X=              2.7219    Y=              0.0000    Z=              0.0000  Tot=              2.7219
 Quadrupole moment (field-independent basis, Debye-Ang):
   XX=            -55.1058   YY=            -56.3601   ZZ=            -63.4552
   XY=              0.0000   XZ=              0.0000   YZ=              0.0000

  Exact polarizability: 115.941   0.000  99.585   0.000   0.000  49.715
 Approx polarizability: 142.693   0.000 125.955   0.000   0.000  62.925

                      1                      2                      3
                      A                      A                      A
 Frequencies --    133.0591               210.8656               230.1581
 Red. masses --      5.2301                29.2688                 5.6925
 Frc consts  --      0.0546                 0.7668                 0.1777
 IR Inten    --      0.0000                 0.0024                 1.4418

                      4                      5                      6
                      A                      A                      A
 Frequencies --    340.0696               435.7955               446.2992
 Red. masses --      8.0166                 8.7609                 3.1740
 Frc consts  --      0.5462                 0.9803                 0.3725
 IR Inten    --      0.3251                 0.3541                 5.4035

                      7                      8                      9
                      A                      A                      A
 Frequencies --    488.0867               523.5833               674.6760
 Red. masses --     10.5422                 4.1660                 6.6091
 Frc consts  --      1.4797                 0.6729                 1.7725
 IR Inten    --      7.0540                 0.0000                16.9470

                     10                     11                     12
                      A                      A                      A
 Frequencies --    710.6656               758.6437               771.6125
 Red. masses --      4.5553                 6.9640                 1.2137
 Frc consts  --      1.3555                 2.3615                 0.4258
 IR Inten    --      0.0000                17.4714                74.5341

                     13                     14                     15
                      A                      A                      A
 Frequencies --    881.7960               973.8709              1013.2609
 Red. masses --      1.3385                 1.3566                 1.3064
 Frc consts  --      0.6132                 0.7581                 0.7902
 IR Inten    --      0.0000                 1.6992                 0.0000

                     16                     17                     18
                      A                      A                      A
 Frequencies --   1047.6960              1080.8319              1166.0647
 Red. masses --      7.4910                 2.3677                 1.4882
 Frc consts  --      4.8447                 1.6296                 1.1922
 IR Inten    --     39.8978                 8.1567                 1.4575

                     19                     20                     21
                      A                      A                      A
 Frequencies --   1175.5187              1189.7169              1288.4252
 Red. masses --      2.4515                 1.1655                 1.4015
 Frc consts  --      1.9959                 0.9720                 1.3708
 IR Inten    --     40.8641                 4.5494                 2.8508

                     22                     23                     24
                      A                      A                      A
 Frequencies --   1334.4115              1483.9589              1522.0393
 Red. masses --      8.3175                 2.3009                 2.5957
 Frc consts  --      8.7262                 2.9853                 3.5428
 IR Inten    --      1.2691                20.0046                65.7790

                     25                     26                     27
                      A                      A                      A
 Frequencies --   1664.0099              1675.1351              3218.0963
 Red. masses --      6.9766                 6.3397                 1.0867
 Frc consts  --     11.3816                10.4814                 6.6306
 IR Inten    --      6.0318                 9.9421                 0.5913

                     28                     29                     30
                      A                      A                      A
 Frequencies --   3227.1194              3234.1651              3240.9001
 Red. masses --      1.0908                 1.0948                 1.0992
 Frc consts  --      6.6931                 6.7472                 6.8022
 IR Inten    --      2.2862                 1.5028                 4.5820

 - Thermochemistry -
 -------------------
 Temperature   298.150 Kelvin.  Pressure   1.00000 Atm.
 Atom     1 has atomic number  6 and mass  12.00000

 Molecular mass:   145.96901 amu.
 Principal axes and moments of inertia in atomic units:
                           1         2         3
     Eigenvalues --   941.758551263.730982205.48954
           X            1.00000   0.00000   0.00000
           Y            0.00000   1.00000   0.00000
           Z            0.00000   0.00000   1.00000
 This molecule is an asymmetric top.
 Rotational symmetry number  1.
 Warning -- assumption of classical behavior for rotation
           may cause significant error
 Rotational temperatures (Kelvin)      0.09197     0.06854     0.03927
 Rotational constants (GHZ):           1.91635     1.42811     0.81830
 Zero-point vibrational energy     216168.4 (Joules/Mol)
                                   51.66548 (Kcal/Mol)
 Warning -- explicit consideration of   8 degrees of freedom as
           vibrations may cause significant error
 Vibrational temperatures:    191.44   303.39   331.15   489.28   627.01
          (Kelvin)            642.12   702.25   753.32   970.71  1022.49
                             1091.52  1110.18  1268.71  1401.18  1457.85
                             1507.40  1555.07  1677.70  1691.31  1711.74
                             1853.75  1919.92  2135.08  2189.87  2394.14
                             2410.14  4630.12  4643.10  4653.24  4662.93

 Zero-point correction=                           0.082334 (Hartree/Particle)
 Thermal correction to Energy=                    0.088947
 Thermal correction to Enthalpy=                  0.089891
 Thermal correction to Gibbs Free Energy=         0.050465
 Sum of electronic and zero-point Energies=          -1151.198184
 Sum of electronic and thermal Energies=             -1151.191571
 Sum of electronic and thermal Enthalpies=           -1151.190627
 Sum of electronic and thermal Free Energies=        -1151.230053

                     E (Thermal)             CV                S
                      KCal/Mol        Cal/Mol-Kelvin    Cal/Mol-Kelvin
 Total                   55.815             24.537             82.980
 Electronic               0.000              0.000              0.000
 Translational            0.889              2.981             40.845
 Rotational               0.889              2.981             29.352
 Vibrational             54.038             18.575             12.782
 Vibration     1          0.613              1.920              2.901
 Vibration     2          0.643              1.824              2.036
 Vibration     3          0.652              1.795              1.878
 Vibration     4          0.720              1.595              1.212
 Vibration     5          0.796              1.392              0.840
 Vibration     6          0.806              1.369              0.807
 Vibration     7          0.844              1.276              0.689
 Vibration     8          0.879              1.198              0.602

 Optimization completed.
    -- Stationary point found.
 Normal termination of Gaussian 09 at Sun Mar 16 19:46:18 2025.
