 Gaussian 09, Revision D.01,
 Gaussian 09:  ES64L-G09RevD.01 24-Apr-2013

 ---------------------------------
 #m062X/6-31+G(d) OPT Freq=noraman
 ---------------------------------

 --------------------
 1,1-dichloroethylene
 --------------------
 Symbolic Z-matrix:
 Charge =  0 Multiplicity = 1

 SCF Done:  E(RM062X) =  -997.674670444     A.U. after   12 cycles
 SCF Done:  E(RM062X) =  -997.676570477     A.U. after   10 cycles
 SCF Done:  E(RM062X) =  -997.676660379     A.U. after    9 cycles
 SCF Done:  E(RM062X) =  -997.676666301     A.U. after    9 cycles
 Optimization completed.
    -- Stationary point found.
 Normal termination of Gaussian 09 at Fri Mar 14 14:03:10 2025.

 ---------------------------------------------------------------------
 #N Geom=AllCheck Guess=TCheck SCRF=Check GenChk RM062X/6-31+G(d) Freq
 ---------------------------------------------------------------------

 Structure from the checkpoint file:  "/srv/scratch/z5358697/gauss/Gau-747021.chk"
 --------------------
 1,1-dichloroethylene
 --------------------
 Charge =  0 Multiplicity = 1

                         Standard orientation:
 ---------------------------------------------------------------------
 Center     Atomic      Atomic             Coordinates (Angstroms)
 Number     Number       Type             X           Y           Z
 ---------------------------------------------------------------------
      1          6           0       -0.000001    1.746442    0.000005
      2          6           0        0.000001    0.420085   -0.000105
      3         17           0       -1.454669   -0.517251    0.000012
      4         17           0        1.454670   -0.517250    0.000012
      5          1           0        0.935391    2.293681    0.000093
      6          1           0       -0.935395    2.293676    0.000092
 ---------------------------------------------------------------------

 SCF Done:  E(RM062X) =  -997.676666301     A.U. after    1 cycles

 The electronic state is 1-A.
 Alpha  occ. eigenvalues -- -102.69271-102.69270 -10.68161 -10.58092  -9.83985
 Alpha  occ. eigenvalues --   -9.83984  -7.56413  -7.56413  -7.55698  -7.55698
 Alpha  occ. eigenvalues --   -7.55684  -7.55684  -1.03254  -0.94338  -0.85588
 Alpha  occ. eigenvalues --   -0.65588  -0.57319  -0.54731  -0.48738  -0.47197
 Alpha  occ. eigenvalues --   -0.41529  -0.40285  -0.38453  -0.32569
 Alpha virt. eigenvalues --    0.00215   0.01568   0.03735   0.04196   0.04489
 Alpha virt. eigenvalues --    0.04949   0.08138   0.08554   0.10714   0.10856
 Alpha virt. eigenvalues --    0.11139   0.12064   0.13447   0.13647   0.15443

 Mulliken charges:
               1
     1  C   -0.661459
     2  C    0.018714
     3  Cl   0.085940
     4  Cl   0.085942
     5  H    0.235432
     6  H    0.235432
 Sum of Mulliken charges =   0.00000

 Dipole moment (field-independent basis, Debye):
    X=              0.0000    Y=              1.5405    Z=              0.0002  Tot=              1.5405
 Quadrupole moment (field-independent basis, Debye-Ang):
   XX=            -36.6991   YY=            -33.9081   ZZ=            -39.0175
   XY=              0.0000   XZ=              0.0000   YZ=              0.0004

  Exact polarizability:  52.780   0.000  56.581   0.000   0.000  28.427
 Approx polarizability:  59.260   0.000  67.504   0.000   0.001  32.857

                      1                      2                      3
                      A                      A                      A
 Frequencies --    301.0385               381.8502               465.1050
 Red. masses --     19.0625                 2.9850                 6.4366
 Frc consts  --      1.0178                 0.2564                 0.8204
 IR Inten    --      0.0088                 0.4369                 6.1486

                      4                      5                      6
                      A                      A                      A
 Frequencies --    622.9853               700.1491               798.9420
 Red. masses --      9.0494                 1.0195                 3.1225
 Frc consts  --      2.0693                 0.2945                 1.1743
 IR Inten    --     15.8864                 0.0000                94.4997

                      7                      8                      9
                      A                      A                      A
 Frequencies --    923.5694              1109.5627              1422.3769
 Red. masses --      1.3358                 1.9947                 1.1549
 Frc consts  --      0.6713                 1.4468                 1.3766
 IR Inten    --     60.0779               112.0131                 0.0346

                     10                     11                     12
                      A                      A                      A
 Frequencies --   1709.7222              3207.1534              3304.5573
 Red. masses --      5.7511                 1.0604                 1.1200
 Frc consts  --      9.9050                 6.4262                 7.2058
 IR Inten    --     74.8905                 4.6669                 0.5556

 - Thermochemistry -
 -------------------
 Temperature   298.150 Kelvin.  Pressure   1.00000 Atm.
 Atom     1 has atomic number  6 and mass  12.00000

 Molecular mass:    95.95336 amu.
 Principal axes and moments of inertia in atomic units:
                           1         2         3
     Eigenvalues --   241.80711 534.78918 776.59629
           X            1.00000   0.00000   0.00000
           Y            0.00000   1.00000   0.00001
           Z            0.00000  -0.00001   1.00000
 This molecule is an asymmetric top.
 Rotational symmetry number  1.
 Rotational temperatures (Kelvin)      0.35819     0.16196     0.11153
 Rotational constants (GHZ):           7.46356     3.37468     2.32391
 Zero-point vibrational energy      89403.0 (Joules/Mol)
                                   21.36783 (Kcal/Mol)
 Warning -- explicit consideration of   3 degrees of freedom as
           vibrations may cause significant error
 Vibrational temperatures:    433.13   549.40   669.18   896.34  1007.36
          (Kelvin)           1149.50  1328.81  1596.41  2046.48  2459.91
                             4614.37  4754.51

 Zero-point correction=                           0.034052 (Hartree/Particle)
 Thermal correction to Energy=                    0.038303
 Thermal correction to Enthalpy=                  0.039247
 Thermal correction to Gibbs Free Energy=         0.005972
 Sum of electronic and zero-point Energies=           -997.642615
 Sum of electronic and thermal Energies=              -997.638363
 Sum of electronic and thermal Enthalpies=            -997.637419
 Sum of electronic and thermal Free Energies=         -997.670694

                     E (Thermal)             CV                S
                      KCal/Mol        Cal/Mol-Kelvin    Cal/Mol-Kelvin
 Total                   24.036             13.809             70.033
 Electronic               0.000              0.000              0.000
 Translational            0.889              2.981             39.595
 Rotational               0.889              2.981             26.110
 Vibrational             22.258              7.847              4.328
 Vibration     1          0.693              1.672              1.411
 Vibration     2          0.751              1.509              1.032
 Vibration     3          0.823              1.327              0.751

 Optimization completed.
    -- Stationary point found.
 Normal termination of Gaussian 09 at Fri Mar 14 14:03:39 2025.
