 Gaussian 09, Revision D.01,
 Gaussian 09:  ES64L-G09RevD.01 24-Apr-2013

 ---------------------------------
 #m062X/6-31+G(d) OPT Freq=noraman
 ---------------------------------

 ----------------------
 1,3,5-trichlorobenzene
 ----------------------
 Symbolic Z-matrix:
 Charge =  0 Multiplicity = 1

 SCF Done:  E(RM062X) =  -1610.84909021     A.U. after   13 cycles
 SCF Done:  E(RM062X) =  -1610.85019492     A.U. after   11 cycles
 SCF Done:  E(RM062X) =  -1610.85043144     A.U. after   11 cycles
 SCF Done:  E(RM062X) =  -1610.85043848     A.U. after    9 cycles
 SCF Done:  E(RM062X) =  -1610.85036521     A.U. after    9 cycles
 SCF Done:  E(RM062X) =  -1610.85040592     A.U. after    9 cycles
 SCF Done:  E(RM062X) =  -1610.85039782     A.U. after    9 cycles
 SCF Done:  E(RM062X) =  -1610.85034641     A.U. after    9 cycles
 SCF Done:  E(RM062X) =  -1610.85042294     A.U. after    9 cycles
 SCF Done:  E(RM062X) =  -1610.85034773     A.U. after   10 cycles
 SCF Done:  E(RM062X) =  -1610.85039991     A.U. after   10 cycles
 SCF Done:  E(RM062X) =  -1610.85034681     A.U. after    9 cycles
 Optimization completed.
    -- Stationary point found.
 Normal termination of Gaussian 09 at Sun Mar 16 19:56:48 2025.

 ---------------------------------------------------------------------
 #N Geom=AllCheck Guess=TCheck SCRF=Check GenChk RM062X/6-31+G(d) Freq
 ---------------------------------------------------------------------

 Structure from the checkpoint file:  "/srv/scratch/z5358697/gauss/Gau-3359236.chk"
 ----------------------
 1,3,5-trichlorobenzene
 ----------------------
 Charge =  0 Multiplicity = 1

                         Standard orientation:
 ---------------------------------------------------------------------
 Center     Atomic      Atomic             Coordinates (Angstroms)
 Number     Number       Type             X           Y           Z
 ---------------------------------------------------------------------
      1          6           0       -1.384286   -0.237646   -0.000016
      2          6           0       -0.476804   -1.291990   -0.000080
      3          6           0        0.898183   -1.079843   -0.000031
      4          6           0        1.357303    0.233339    0.000040
      5          6           0        0.486292    1.318077   -0.000042
      6          6           0       -0.880480    1.059003   -0.000063
      7         17           0       -1.992647    2.395388    0.000026
      8         17           0        3.071329    0.527375    0.000015
      9         17           0       -1.078756   -2.923160    0.000027
     10          1           0       -2.452723   -0.420740    0.000040
     11          1           0        1.591368   -1.913288   -0.000013
     12          1           0        0.861362    2.335139   -0.000031
 ---------------------------------------------------------------------

 SCF Done:  E(RM062X) =  -1610.85034681     A.U. after    1 cycles

 The electronic state is 1-A.
 Alpha  occ. eigenvalues -- -102.69112-102.69110-102.69110 -10.64880 -10.64879
 Alpha  occ. eigenvalues --  -10.64877 -10.59589 -10.59587 -10.59584  -9.83781
 Alpha  occ. eigenvalues --   -9.83779  -9.83778  -7.56197  -7.56195  -7.56194
 Alpha  occ. eigenvalues --   -7.55513  -7.55511  -7.55510  -7.55495  -7.55493
 Alpha  occ. eigenvalues --   -7.55492  -1.04477  -0.99610  -0.99602  -0.92616
 Alpha  occ. eigenvalues --   -0.85584  -0.85582  -0.71094  -0.71091  -0.62322
 Alpha  occ. eigenvalues --   -0.59161  -0.55518  -0.52677  -0.52673  -0.51546
 Alpha  occ. eigenvalues --   -0.46617  -0.46613  -0.44952  -0.44948  -0.40284
 Alpha  occ. eigenvalues --   -0.40283  -0.38960  -0.38510  -0.32241  -0.32238
 Alpha virt. eigenvalues --   -0.01675  -0.01673   0.00730   0.01329   0.02618
 Alpha virt. eigenvalues --    0.02623   0.04429   0.04433   0.04973   0.05803
 Alpha virt. eigenvalues --    0.07956   0.07962   0.08758   0.08763   0.09430

 Mulliken charges:
               1
     1  C   -0.252103
     2  C   -0.219763
     3  C   -0.245567
     4  C   -0.225878
     5  C   -0.249119
     6  C   -0.218650
     7  Cl   0.216001
     8  Cl   0.216696
     9  Cl   0.216109
    10  H    0.254101
    11  H    0.254099
    12  H    0.254074
 Sum of Mulliken charges =   0.00000

 Dipole moment (field-independent basis, Debye):
    X=             -0.0009    Y=              0.0007    Z=              0.0000  Tot=              0.0012
 Quadrupole moment (field-independent basis, Debye-Ang):
   XX=            -72.6593   YY=            -72.6419   ZZ=            -74.8915
   XY=             -0.0019   XZ=             -0.0003   YZ=             -0.0001

  Exact polarizability: 127.388  -0.062 127.314   0.000   0.000  55.449
 Approx polarizability: 153.198   0.000 153.180   0.000   0.000  70.836

                      1                      2                      3
                      A                      A                      A
 Frequencies --    129.1043               186.5249               188.7843
 Red. masses --     14.2535                23.0595                23.2087
 Frc consts  --      0.1400                 0.4727                 0.4873
 IR Inten    --      0.0491                 0.1554                 0.1320

                      4                      5                      6
                      A                      A                      A
 Frequencies --    203.2761               207.0024               385.0464
 Red. masses --      4.6747                 4.7176                32.6525
 Frc consts  --      0.1138                 0.1191                 2.8523
 IR Inten    --      0.0000                 0.0011                 0.0048

                      7                      8                      9
                      A                      A                      A
 Frequencies --    432.8863               435.3036               444.8592
 Red. masses --      9.4694                 9.3785                 5.1625
 Frc consts  --      1.0455                 1.0471                 0.6019
 IR Inten    --      5.1406                 4.6228                 0.0008

                     10                     11                     12
                      A                      A                      A
 Frequencies --    542.1821               543.6269               674.6840
 Red. masses --      5.2417                 5.2828                 2.5743
 Frc consts  --      0.9079                 0.9199                 0.6904
 IR Inten    --      0.0001                 0.0079                13.7632

                     13                     14                     15
                      A                      A                      A
 Frequencies --    823.8068               827.5848               875.0588
 Red. masses --     11.3980                11.4055                 1.5103
 Frc consts  --      4.5575                 4.6024                 0.6814
 IR Inten    --     86.5382                85.6344                50.1916

                     16                     17                     18
                      A                      A                      A
 Frequencies --    896.1550               902.5383              1013.1995
 Red. masses --      1.3670                 1.3573                 6.5313
 Frc consts  --      0.6468                 0.6514                 3.9504
 IR Inten    --      0.1552                 1.2153                 0.0085

                     19                     20                     21
                      A                      A                      A
 Frequencies --   1137.9159              1141.8783              1193.0118
 Red. masses --      1.3978                 1.4013                11.0874
 Frc consts  --      1.0664                 1.0765                 9.2976
 IR Inten    --     14.8457                15.5960                 0.0141

                     22                     23                     24
                      A                      A                      A
 Frequencies --   1265.4224              1339.9406              1470.2523
 Red. masses --      1.4125                 4.2543                 3.2217
 Frc consts  --      1.3326                 4.5004                 4.1032
 IR Inten    --      0.0164                 0.0120                61.8986

                     25                     26                     27
                      A                      A                      A
 Frequencies --   1473.4586              1660.6010              1661.8425
 Red. masses --      3.2187                 7.5982                 7.5593
 Frc consts  --      4.1172                12.3450                12.3001
 IR Inten    --     61.8890               120.9690               120.8235

                     28                     29                     30
                      A                      A                      A
 Frequencies --   3248.5909              3249.7156              3252.2073
 Red. masses --      1.0939                 1.0941                 1.0939
 Frc consts  --      6.8014                 6.8074                 6.8166
 IR Inten    --      3.0792                 2.9436                 2.5751

 - Thermochemistry -
 -------------------
 Temperature   298.150 Kelvin.  Pressure   1.00000 Atm.
 Atom     1 has atomic number  6 and mass  12.00000

 Molecular mass:   179.93003 amu.
 Principal axes and moments of inertia in atomic units:
                           1         2         3
     Eigenvalues --  2100.502212101.288624201.79083
           X            0.99998  -0.00607   0.00000
           Y            0.00607   0.99998   0.00000
           Z            0.00000   0.00000   1.00000
 This molecule is an asymmetric top.
 Rotational symmetry number  1.
 Warning -- assumption of classical behavior for rotation
           may cause significant error
 Rotational temperatures (Kelvin)      0.04123     0.04122     0.02061
 Rotational constants (GHZ):           0.85920     0.85887     0.42952
 Zero-point vibrational energy     190244.9 (Joules/Mol)
                                   45.46962 (Kcal/Mol)
 Warning -- explicit consideration of  11 degrees of freedom as
           vibrations may cause significant error
 Vibrational temperatures:    185.75   268.37   271.62   292.47   297.83
          (Kelvin)            554.00   622.83   626.30   640.05   780.08
                              782.16   970.72  1185.27  1190.71  1259.01
                             1289.37  1298.55  1457.77  1637.21  1642.91
                             1716.48  1820.66  1927.87  2115.36  2119.98
                             2389.23  2391.02  4673.99  4675.61  4679.20

 Zero-point correction=                           0.072460 (Hartree/Particle)
 Thermal correction to Energy=                    0.080342
 Thermal correction to Enthalpy=                  0.081287
 Thermal correction to Gibbs Free Energy=         0.038280
 Sum of electronic and zero-point Energies=          -1610.777886
 Sum of electronic and thermal Energies=             -1610.770004
 Sum of electronic and thermal Enthalpies=           -1610.769060
 Sum of electronic and thermal Free Energies=        -1610.812067

                     E (Thermal)             CV                S
                      KCal/Mol        Cal/Mol-Kelvin    Cal/Mol-Kelvin
 Total                   50.416             28.488             90.515
 Electronic               0.000              0.000              0.000
 Translational            0.889              2.981             41.469
 Rotational               0.889              2.981             31.295
 Vibrational             48.638             22.526             17.751
 Vibration     1          0.612              1.924              2.959
 Vibration     2          0.632              1.858              2.262
 Vibration     3          0.633              1.855              2.240
 Vibration     4          0.639              1.835              2.103
 Vibration     5          0.641              1.830              2.070
 Vibration     6          0.754              1.502              1.019
 Vibration     7          0.794              1.399              0.849
 Vibration     8          0.796              1.393              0.842
 Vibration     9          0.804              1.372              0.811
 Vibration    10          0.897              1.157              0.561
 Vibration    11          0.899              1.154              0.558

 Optimization completed.
    -- Stationary point found.
 Normal termination of Gaussian 09 at Sun Mar 16 20:02:34 2025.
