 Gaussian 09, Revision D.01,
 Gaussian 09:  ES64L-G09RevD.01 24-Apr-2013

 ---------------------------------
 #m062X/6-31+G(d) OPT Freq=noraman
 ---------------------------------

 --------
 pyridine
 --------
 Symbolic Z-matrix:
 Charge =  0 Multiplicity = 1

 SCF Done:  E(RM062X) =  -248.179322400     A.U. after   12 cycles
 SCF Done:  E(RM062X) =  -248.180046691     A.U. after   11 cycles
 SCF Done:  E(RM062X) =  -248.180088866     A.U. after    9 cycles
 Optimization completed.
    -- Stationary point found.

 1\1\GINC-KATANA3\FOpt\RM062X\6-31+G(d)\C5H5N1\Z5358697\15-Mar-2025\0\\
 #m062X/6-31+G(d) OPT Freq=noraman\\pyridine\\0,1\C,1.3978337789,-0.058
 2001191,1.6459741478\C,0.2313049614,-0.4187414769,0.9770561776\C,-0.63
 07153717,-1.327155502,1.5897750502\N,-0.401721997,-1.8738785691,2.7859
 216421\C,0.7204258634,-1.5195057801,3.4163272594\C,1.6495609691,-0.620
 650675,2.8944017557\H,2.0962399265,0.6465189885,1.2035868584\H,-0.0103
 407192,-0.0081386051,0.0017013394\H,-1.5514240708,-1.6320007729,1.0969
 755174\H,0.8836908985,-1.9786224818,4.388964114\H,2.5446457611,-0.3718

 Normal termination of Gaussian 09 at Sat Mar 15 12:43:51 2025.

 ---------------------------------------------------------------------
 #N Geom=AllCheck Guess=TCheck SCRF=Check GenChk RM062X/6-31+G(d) Freq
 ---------------------------------------------------------------------

 Structure from the checkpoint file:  "/srv/scratch/z5358697/gauss/Gau-2051854.chk"
 --------
 pyridine
 --------
 Charge =  0 Multiplicity = 1

                         Standard orientation:
 ---------------------------------------------------------------------
 Center     Atomic      Atomic             Coordinates (Angstroms)
 Number     Number       Type             X           Y           Z
 ---------------------------------------------------------------------
      1          6           0       -0.000121    1.383117   -0.000011
      2          6           0       -1.196762    0.671584   -0.000003
      3          6           0       -1.139984   -0.721433   -0.000007
      4          7           0        0.000107   -1.415913    0.000000
      5          6           0        1.140120   -0.721235   -0.000029
      6          6           0        1.196652    0.671763   -0.000002
      7          1           0       -0.000193    2.469444    0.000038
      8          1           0       -2.155979    1.179726    0.000019
      9          1           0       -2.054582   -1.310497    0.000083
     10          1           0        2.054812   -1.310136    0.000101
     11          1           0        2.155764    1.180074    0.000069
 ---------------------------------------------------------------------

 SCF Done:  E(RM062X) =  -248.180088866     A.U. after    1 cycles

 The electronic state is 1-A.
 Alpha  occ. eigenvalues --  -14.76732 -10.59123 -10.59123 -10.57890 -10.56828
 Alpha  occ. eigenvalues --  -10.56825  -1.05885  -0.91107  -0.86515  -0.72023
 Alpha  occ. eigenvalues --   -0.71785  -0.61200  -0.55299  -0.54808  -0.50125
 Alpha  occ. eigenvalues --   -0.47679  -0.47603  -0.42920  -0.35017  -0.32686
 Alpha  occ. eigenvalues --   -0.32166
 Alpha virt. eigenvalues --   -0.00114   0.01018   0.01986   0.03220   0.03678
 Alpha virt. eigenvalues --    0.05354   0.05610   0.06385   0.07626   0.09393
 Alpha virt. eigenvalues --    0.09787   0.10056   0.10892   0.13824   0.14569

 Mulliken charges:
               1
     1  C   -0.339515
     2  C    0.056078
     3  C   -0.335747
     4  N   -0.161549
     5  C   -0.335769
     6  C    0.056082
     7  H    0.217878
     8  H    0.216671
     9  H    0.204599
    10  H    0.204603
    11  H    0.216669
 Sum of Mulliken charges =   0.00000

 Dipole moment (field-independent basis, Debye):
    X=             -0.0002    Y=              2.3533    Z=              0.0002  Tot=              2.3533
 Quadrupole moment (field-independent basis, Debye-Ang):
   XX=            -29.3508   YY=            -36.6689   ZZ=            -38.4344
   XY=              0.0006   XZ=              0.0002   YZ=              0.0000

  Exact polarizability:  72.676   0.000  68.854   0.000   0.000  35.276
 Approx polarizability:  93.112   0.000  90.215   0.000   0.000  43.320

                      1                      2                      3
                      A                      A                      A
 Frequencies --    387.1063               418.3551               611.2924
 Red. masses --      2.5768                 3.7266                 7.0763
 Frc consts  --      0.2275                 0.3843                 1.5580
 IR Inten    --      0.0000                 4.0439                 3.4038

                      4                      5                      6
                      A                      A                      A
 Frequencies --    668.8047               719.8501               761.7837
 Red. masses --      6.3077                 1.3761                 2.2917
 Frc consts  --      1.6623                 0.4201                 0.7836
 IR Inten    --      0.4023                71.6372                11.0314

                      7                      8                      9
                      A                      A                      A
 Frequencies --    902.8671               979.5254              1021.4419
 Red. masses --      1.2529                 1.3255                 7.0996
 Frc consts  --      0.6018                 0.7493                 4.3643
 IR Inten    --      0.0000                 0.0639                 7.0810

                     10                     11                     12
                      A                      A                      A
 Frequencies --   1025.9143              1028.7982              1062.3163
 Red. masses --      1.4559                 1.3122                 5.1659
 Frc consts  --      0.9028                 0.8183                 3.4348
 IR Inten    --      0.0000                 0.0012                 1.1679

                     13                     14                     15
                      A                      A                      A
 Frequencies --   1098.5662              1107.8616              1173.6794
 Red. masses --      1.6718                 1.5548                 1.1430
 Frc consts  --      1.1887                 1.1243                 0.9276
 IR Inten    --      0.0130                 6.1159                 2.4662

                     16                     17                     18
                      A                      A                      A
 Frequencies --   1260.0405              1309.1763              1393.6689
 Red. masses --      1.2664                 6.6356                 1.2012
 Frc consts  --      1.1846                 6.7008                 1.3747
 IR Inten    --      3.8336                 0.0647                 0.0025

                     19                     20                     21
                      A                      A                      A
 Frequencies --   1497.6076              1538.4617              1676.1682
 Red. masses --      2.1602                 2.0952                 6.3940
 Frc consts  --      2.8546                 2.9218                10.5842
 IR Inten    --     28.0839                 2.8612                13.8130

                     22                     23                     24
                      A                      A                      A
 Frequencies --   1679.6726              3204.9604              3209.1423
 Red. masses --      5.5398                 1.0864                 1.0874
 Frc consts  --      9.2085                 6.5748                 6.5983
 IR Inten    --     25.0584                 0.0008                13.9460

                     25                     26                     27
                      A                      A                      A
 Frequencies --   3216.2056              3226.3398              3233.0117
 Red. masses --      1.0934                 1.0960                 1.1006
 Frc consts  --      6.6635                 6.7215                 6.7777
 IR Inten    --     11.5238                29.1177                 1.8347

 - Thermochemistry -
 -------------------
 Temperature   298.150 Kelvin.  Pressure   1.00000 Atm.
 Atom     1 has atomic number  6 and mass  12.00000

 Molecular mass:    79.04220 amu.
 Principal axes and moments of inertia in atomic units:
                           1         2         3
     Eigenvalues --   297.97597 309.59919 607.57516
           X           -0.00014   1.00000   0.00000
           Y            1.00000   0.00014   0.00000
           Z            0.00000   0.00000   1.00000
 This molecule is an asymmetric top.
 Rotational symmetry number  1.
 Rotational temperatures (Kelvin)      0.29067     0.27976     0.14256
 Rotational constants (GHZ):           6.05667     5.82928     2.97040
 Zero-point vibrational energy     235739.8 (Joules/Mol)
                                   56.34317 (Kcal/Mol)
 Warning -- explicit consideration of   3 degrees of freedom as
           vibrations may cause significant error
 Vibrational temperatures:    556.96   601.92   879.51   962.26  1035.70
          (Kelvin)           1096.04  1299.02  1409.32  1469.63  1476.06
                             1480.21  1528.43  1580.59  1593.96  1688.66
                             1812.91  1883.61  2005.18  2154.72  2213.50
                             2411.63  2416.67  4611.22  4617.23  4627.40
                             4641.98  4651.58

 Zero-point correction=                           0.089789 (Hartree/Particle)
 Thermal correction to Energy=                    0.094046
 Thermal correction to Enthalpy=                  0.094990
 Thermal correction to Gibbs Free Energy=         0.062395
 Sum of electronic and zero-point Energies=           -248.090300
 Sum of electronic and thermal Energies=              -248.086043
 Sum of electronic and thermal Enthalpies=            -248.085099
 Sum of electronic and thermal Free Energies=         -248.117694

                     E (Thermal)             CV                S
                      KCal/Mol        Cal/Mol-Kelvin    Cal/Mol-Kelvin
 Total                   59.014             15.975             68.601
 Electronic               0.000              0.000              0.000
 Translational            0.889              2.981             39.017
 Rotational               0.889              2.981             25.531
 Vibrational             57.237             10.013              4.054
 Vibration     1          0.756              1.498              1.011
 Vibration     2          0.781              1.430              0.898
 Vibration     3          0.970              1.008              0.431

 Optimization completed.
    -- Stationary point found.

 1\1\GINC-KATANA3\Freq\RM062X\6-31+G(d)\C5H5N1\Z5358697\15-Mar-2025\0\\
 #N Geom=AllCheck Guess=TCheck SCRF=Check GenChk RM062X/6-31+G(d) Freq\
 \pyridine\\0,1\C,1.3978337789,-0.0582001191,1.6459741478\C,0.231304961
 4,-0.4187414769,0.9770561776\C,-0.6307153717,-1.327155502,1.5897750502
 \N,-0.401721997,-1.8738785691,2.7859216421\C,0.7204258634,-1.519505780
 1,3.4163272594\C,1.6495609691,-0.620650675,2.8944017557\H,2.0962399265
 ,0.6465189885,1.2035868584\H,-0.0103407192,-0.0081386051,0.0017013394\
 H,-1.5514240708,-1.6320007729,1.0969755174\H,0.8836908985,-1.978622481

 Normal termination of Gaussian 09 at Sat Mar 15 12:45:53 2025.
