 Gaussian 09, Revision D.01,
 Gaussian 09:  ES64L-G09RevD.01 24-Apr-2013

 ---------------------------------
 #m062X/6-31+G(d) OPT Freq=noraman
 ---------------------------------

 ---------
 thiophene
 ---------
 Symbolic Z-matrix:
 Charge =  0 Multiplicity = 1

 SCF Done:  E(RM062X) =  -552.901467154     A.U. after   13 cycles
 SCF Done:  E(RM062X) =  -552.901731335     A.U. after   10 cycles
 SCF Done:  E(RM062X) =  -552.901764795     A.U. after    9 cycles
 SCF Done:  E(RM062X) =  -552.901767807     A.U. after    8 cycles
 Optimization completed.
    -- Stationary point found.

 1\1\GINC-KATANA1\FOpt\RM062X\6-31+G(d)\C4H4S1\Z5358697\14-Mar-2025\0\\
 #m062X/6-31+G(d) OPT Freq=noraman\\thiophene\\0,1\C,-0.4734033631,-0.0
 935808307,-0.9745013243\C,-0.2571884302,0.805821656,-2.0636225217\C,-0
 .9735261276,0.4606140795,-3.1742456302\S,-1.9148184233,-0.9561326785,-
 2.9103398199\C,-1.3471432913,-1.0945977598,-1.2912578073\H,-0.00122887
 63,0.0007872908,-0.0034639248\H,0.3993381929,1.6671891214,-2.021344056
 5\H,-1.0001179763,0.9603433675,-4.133163776\H,-1.6887117048,-1.9059442
 462,-0.6627611394\\Version=ES64L-G09RevD.01\State=1-A\HF=-552.9017678\

 Normal termination of Gaussian 09 at Fri Mar 14 16:00:55 2025.

 ---------------------------------------------------------------------
 #N Geom=AllCheck Guess=TCheck SCRF=Check GenChk RM062X/6-31+G(d) Freq
 ---------------------------------------------------------------------

 Structure from the checkpoint file:  "/srv/scratch/z5358697/gauss/Gau-820452.chk"
 ---------
 thiophene
 ---------
 Charge =  0 Multiplicity = 1

                         Standard orientation:
 ---------------------------------------------------------------------
 Center     Atomic      Atomic             Coordinates (Angstroms)
 Number     Number       Type             X           Y           Z
 ---------------------------------------------------------------------
      1          6           0       -1.269391   -0.714469   -0.000020
      2          6           0       -1.269394    0.714468    0.000102
      3          6           0       -0.006650    1.235304   -0.000140
      4         16           0        1.192047    0.000001    0.000058
      5          6           0       -0.006648   -1.235306   -0.000070
      6          1           0       -2.165803   -1.323742   -0.000005
      7          1           0       -2.165803    1.323745    0.000187
      8          1           0        0.285680    2.276699   -0.000231
      9          1           0        0.285680   -2.276702   -0.000115
 ---------------------------------------------------------------------

 SCF Done:  E(RM062X) =  -552.901767807     A.U. after    1 cycles

 The electronic state is 1-A.
 Alpha  occ. eigenvalues --  -89.95521 -10.58035 -10.58033 -10.55853 -10.55791
 Alpha  occ. eigenvalues --   -8.30053  -6.22052  -6.21825  -6.21625  -0.98493
 Alpha  occ. eigenvalues --   -0.82747  -0.82002  -0.64439  -0.63188  -0.59181
 Alpha  occ. eigenvalues --   -0.47970  -0.45595  -0.45091  -0.44830  -0.40430
 Alpha  occ. eigenvalues --   -0.30577  -0.29372
 Alpha virt. eigenvalues --    0.01423   0.02636   0.02648   0.03904   0.04515
 Alpha virt. eigenvalues --    0.05310   0.07043   0.07569   0.08182   0.08948
 Alpha virt. eigenvalues --    0.09993   0.10446   0.11043   0.11623   0.14096

 Mulliken charges:
               1
     1  C   -0.175454
     2  C   -0.175452
     3  C   -0.342744
     4  S    0.113517
     5  C   -0.342743
     6  H    0.216729
     7  H    0.216730
     8  H    0.244709
     9  H    0.244709
 Sum of Mulliken charges =   0.00000

 Dipole moment (field-independent basis, Debye):
    X=             -0.5095    Y=              0.0000    Z=              0.0001  Tot=              0.5095
 Quadrupole moment (field-independent basis, Debye-Ang):
   XX=            -34.8886   YY=            -31.5979   ZZ=            -40.9422
   XY=              0.0000   XZ=             -0.0001   YZ=             -0.0001

  Exact polarizability:  72.478   0.000  65.100  -0.001   0.000  38.720
 Approx polarizability:  97.803   0.000  85.669  -0.001  -0.001  47.790

                      1                      2                      3
                      A                      A                      A
 Frequencies --    457.2543               578.9482               619.9730
 Red. masses --      4.7297                 3.1658                 9.6771
 Frc consts  --      0.5826                 0.6252                 2.1915
 IR Inten    --      0.8864                 0.0000                 0.2436

                      4                      5                      6
                      A                      A                      A
 Frequencies --    724.0757               751.0961               766.1149
 Red. masses --      1.2592                 1.1114                 6.9086
 Frc consts  --      0.3890                 0.3694                 2.3891
 IR Inten    --      0.0000               150.0848                 0.0944

                      7                      8                      9
                      A                      A                      A
 Frequencies --    860.4315               891.5693               917.4770
 Red. masses --      4.1870                 4.3371                 1.2385
 Frc consts  --      1.8264                 2.0312                 0.6142
 IR Inten    --     30.7767                 1.6132                 0.4214

                     10                     11                     12
                      A                      A                      A
 Frequencies --    951.5667              1068.3618              1117.4414
 Red. masses --      1.3234                 1.8399                 1.0955
 Frc consts  --      0.7060                 1.2373                 0.8059
 IR Inten    --      0.0000                 1.6119                 5.0670

                     13                     14                     15
                      A                      A                      A
 Frequencies --   1121.8739              1290.1472              1422.5300
 Red. masses --      1.1319                 1.3714                 2.2019
 Frc consts  --      0.8393                 1.3450                 2.6252
 IR Inten    --      4.1525                11.6009                 0.1575

                     16                     17                     18
                      A                      A                      A
 Frequencies --   1491.1779              1605.6074              3259.7199
 Red. masses --      6.6114                 5.0277                 1.0880
 Frc consts  --      8.6617                 7.6365                 6.8114
 IR Inten    --     17.5760                 0.1125                 3.7685

                     19                     20                     21
                      A                      A                      A
 Frequencies --   3271.8056              3298.8936              3301.1918
 Red. masses --      1.0937                 1.0965                 1.1011
 Frc consts  --      6.8982                 7.0306                 7.0700
 IR Inten    --      2.0299                 0.0360                 1.6653

 - Thermochemistry -
 -------------------
 Temperature   298.150 Kelvin.  Pressure   1.00000 Atm.
 Atom     1 has atomic number  6 and mass  12.00000

 Molecular mass:    84.00337 amu.
 Principal axes and moments of inertia in atomic units:
                           1         2         3
     Eigenvalues --   224.45757 334.11497 558.57254
           X            1.00000   0.00000  -0.00001
           Y            0.00000   1.00000   0.00000
           Z            0.00001   0.00000   1.00000
 This molecule is an asymmetric top.
 Rotational symmetry number  1.
 Rotational temperatures (Kelvin)      0.38588     0.25923     0.15506
 Rotational constants (GHZ):           8.04046     5.40156     3.23099
 Zero-point vibrational energy     178047.7 (Joules/Mol)
                                   42.55443 (Kcal/Mol)
 Warning -- explicit consideration of   3 degrees of freedom as
           vibrations may cause significant error
 Vibrational temperatures:    657.89   832.98   892.00  1041.78  1080.66
          (Kelvin)           1102.27  1237.97  1282.77  1320.04  1369.09
                             1537.13  1607.75  1614.12  1856.23  2046.70
                             2145.47  2310.11  4690.00  4707.39  4746.37
                             4749.67

 Zero-point correction=                           0.067815 (Hartree/Particle)
 Thermal correction to Energy=                    0.071827
 Thermal correction to Enthalpy=                  0.072771
 Thermal correction to Gibbs Free Energy=         0.040611
 Sum of electronic and zero-point Energies=           -552.833953
 Sum of electronic and thermal Energies=              -552.829941
 Sum of electronic and thermal Enthalpies=            -552.828997
 Sum of electronic and thermal Free Energies=         -552.861157

                     E (Thermal)             CV                S
                      KCal/Mol        Cal/Mol-Kelvin    Cal/Mol-Kelvin
 Total                   45.072             14.793             67.686
 Electronic               0.000              0.000              0.000
 Translational            0.889              2.981             39.198
 Rotational               0.889              2.981             25.241
 Vibrational             43.294              8.831              3.247
 Vibration     1          0.815              1.345              0.774
 Vibration     2          0.936              1.077              0.487
 Vibration     3          0.980              0.990              0.417

 Optimization completed.
    -- Stationary point found.

 1\1\GINC-KATANA1\Freq\RM062X\6-31+G(d)\C4H4S1\Z5358697\14-Mar-2025\0\\
 #N Geom=AllCheck Guess=TCheck SCRF=Check GenChk RM062X/6-31+G(d) Freq\
 \thiophene\\0,1\C,-0.4734033631,-0.0935808307,-0.9745013243\C,-0.25718
 84302,0.805821656,-2.0636225217\C,-0.9735261276,0.4606140795,-3.174245
 6302\S,-1.9148184233,-0.9561326785,-2.9103398199\C,-1.3471432913,-1.09
 45977598,-1.2912578073\H,-0.0012288763,0.0007872908,-0.0034639248\H,0.
 3993381929,1.6671891214,-2.0213440565\H,-1.0001179763,0.9603433675,-4.
 133163776\H,-1.6887117048,-1.9059442462,-0.6627611394\\Version=ES64L-G

 Normal termination of Gaussian 09 at Fri Mar 14 16:02:09 2025.
