 Gaussian 09, Revision D.01,
 Gaussian 09:  ES64L-G09RevD.01 24-Apr-2013

 ---------------------------------
 #m062X/6-31+G(d) OPT Freq=noraman
 ---------------------------------

 -----------
 acetic acid
 -----------
 Symbolic Z-matrix:
 Charge =  0 Multiplicity = 1

 SCF Done:  E(RM062X) =  -228.978331386     A.U. after   12 cycles
 SCF Done:  E(RM062X) =  -228.982249709     A.U. after   12 cycles
 SCF Done:  E(RM062X) =  -228.982283209     A.U. after   12 cycles
 SCF Done:  E(RM062X) =  -228.982754665     A.U. after   11 cycles
 SCF Done:  E(RM062X) =  -228.982809699     A.U. after   10 cycles
 SCF Done:  E(RM062X) =  -228.982987933     A.U. after   11 cycles
 SCF Done:  E(RM062X) =  -228.983083743     A.U. after   12 cycles
 SCF Done:  E(RM062X) =  -228.983038222     A.U. after   11 cycles
 SCF Done:  E(RM062X) =  -228.983139993     A.U. after   12 cycles
 SCF Done:  E(RM062X) =  -228.983148634     A.U. after   10 cycles
 SCF Done:  E(RM062X) =  -228.983149551     A.U. after    9 cycles
 Optimization completed.
    -- Stationary point found.

 1\1\GINC-KATANA1\FOpt\RM062X\6-31+G(d)\C2H4O2\Z5358697\19-Mar-2025\0\\
 #m062X/6-31+G(d) OPT Freq=noraman\\acetic acid\\0,1\C,-1.0103405403,0.
 3037121417,-0.150817625\C,-1.5867189036,0.5757172525,1.2220907126\O,-2
 .4327756387,-0.0880539378,1.7515419936\O,-1.0791253837,1.6592506827,1.
 8617961722\H,-1.1842051443,1.1574930129,-0.8140834109\H,0.0696530121,0
 .1351590496,-0.0848756208\H,-1.487985831,-0.581261553,-0.5692144808\H,
 -0.4060015704,2.1002833512,1.3226622591\\Version=ES64L-G09RevD.01\Stat
 e=1-A\HF=-228.9831496\RMSD=3.794e-09\RMSF=2.905e-05\Dipole=1.1952876,0

 Normal termination of Gaussian 09 at Wed Mar 19 12:12:33 2025.

 ---------------------------------------------------------------------
 #N Geom=AllCheck Guess=TCheck SCRF=Check GenChk RM062X/6-31+G(d) Freq
 ---------------------------------------------------------------------

 Structure from the checkpoint file:  "/srv/scratch/z5358697/gauss/Gau-3106737.chk"
 -----------
 acetic acid
 -----------
 Charge =  0 Multiplicity = 1

                         Standard orientation:
 ---------------------------------------------------------------------
 Center     Atomic      Atomic             Coordinates (Angstroms)
 Number     Number       Type             X           Y           Z
 ---------------------------------------------------------------------
      1          6           0       -1.370950    0.047633    0.000104
      2          6           0        0.131292   -0.137690   -0.000002
      3          8           0        0.688680   -1.198841   -0.000059
      4          8           0        0.858659    1.007673    0.000175
      5          1           0       -1.686603    0.608147    0.886264
      6          1           0       -1.686947    0.604444   -0.888294
      7          1           0       -1.850922   -0.930121    0.001820
      8          1           0        0.283702    1.787220   -0.001328
 ---------------------------------------------------------------------

 SCF Done:  E(RM062X) =  -228.983149551     A.U. after    1 cycles

 The electronic state is 1-A.
 Alpha  occ. eigenvalues --  -19.70040 -19.64253 -10.69790 -10.57746  -1.23967
 Alpha  occ. eigenvalues --   -1.15232  -0.86315  -0.71451  -0.60654  -0.55958
 Alpha  occ. eigenvalues --   -0.55553  -0.50312  -0.47920  -0.46018  -0.39913
 Alpha  occ. eigenvalues --   -0.35957
 Alpha virt. eigenvalues --    0.00466   0.03599   0.04252   0.05154   0.05526
 Alpha virt. eigenvalues --    0.08006   0.08546   0.09086   0.12802   0.15323
 Alpha virt. eigenvalues --    0.18823   0.20590   0.23383   0.25618   0.25744

 Mulliken charges:
               1
     1  C   -0.847229
     2  C    0.651270
     3  O   -0.433398
     4  O   -0.590909
     5  H    0.238045
     6  H    0.238164
     7  H    0.262942
     8  H    0.481115
 Sum of Mulliken charges =   0.00000

 Dipole moment (field-independent basis, Debye):
    X=             -3.5267    Y=              3.0765    Z=             -0.0030  Tot=              4.6800
 Quadrupole moment (field-independent basis, Debye-Ang):
   XX=            -25.7486   YY=            -23.2887   ZZ=            -23.4383
   XY=              0.4455   XZ=              0.0001   YZ=             -0.0057

  Exact polarizability:  31.451  -2.353  36.359   0.004  -0.001  22.923
 Approx polarizability:  32.249  -4.001  43.747   0.005  -0.001  26.184

                      1                      2                      3
                      A                      A                      A
 Frequencies --    106.6131               420.7996               438.1886
 Red. masses --      1.0723                 1.1883                 2.6840
 Frc consts  --      0.0072                 0.1240                 0.3036
 IR Inten    --      0.9627               132.6452                 4.2327

                      4                      5                      6
                      A                      A                      A
 Frequencies --    603.4678               604.8719               889.1994
 Red. masses --      2.2886                 5.5668                 5.5036
 Frc consts  --      0.4910                 1.2000                 2.5638
 IR Inten    --      0.4592                 8.5155                27.9788

                      7                      8                      9
                      A                      A                      A
 Frequencies --   1006.3243              1073.7330              1224.0899
 Red. masses --      1.4675                 1.7671                 1.4832
 Frc consts  --      0.8756                 1.2003                 1.3094
 IR Inten    --      4.6147                 5.7722                 5.0468

                     10                     11                     12
                      A                      A                      A
 Frequencies --   1336.5539              1426.5027              1499.6742
 Red. masses --      2.3729                 1.4663                 1.0512
 Frc consts  --      2.4975                 1.7580                 1.3930
 IR Inten    --    391.2716                93.0797                 6.1025

                     13                     14                     15
                      A                      A                      A
 Frequencies --   1506.3746              1925.8156              3088.3103
 Red. masses --      1.0434                10.4259                 1.0375
 Frc consts  --      1.3949                22.7820                 5.8303
 IR Inten    --     10.9749               340.6861                 3.0757

                     16                     17                     18
                      A                      A                      A
 Frequencies --   3159.4175              3208.6931              3820.5097
 Red. masses --      1.1015                 1.1027                 1.0666
 Frc consts  --      6.4782                 6.6891                 9.1730
 IR Inten    --      4.3060                 0.9645                63.4661

 - Thermochemistry -
 -------------------
 Temperature   298.150 Kelvin.  Pressure   1.00000 Atm.
 Atom     1 has atomic number  6 and mass  12.00000

 Molecular mass:    60.02113 amu.
 Principal axes and moments of inertia in atomic units:
                           1         2         3
     Eigenvalues --   163.67224 187.82559 340.16429
           X            1.00000   0.00217   0.00000
           Y           -0.00217   1.00000  -0.00005
           Z            0.00000   0.00005   1.00000
 This molecule is an asymmetric top.
 Rotational symmetry number  1.
 Rotational temperatures (Kelvin)      0.52919     0.46114     0.25462
 Rotational constants (GHZ):          11.02656     9.60860     5.30550
 Zero-point vibrational energy     163524.4 (Joules/Mol)
                                   39.08326 (Kcal/Mol)
 Warning -- explicit consideration of   5 degrees of freedom as
           vibrations may cause significant error
 Vibrational temperatures:    153.39   605.44   630.45   868.25   870.27
          (Kelvin)           1279.36  1447.87  1544.86  1761.19  1923.00
                             2052.42  2157.69  2167.33  2770.82  4443.38
                             4545.69  4616.59  5496.85

 Zero-point correction=                           0.062283 (Hartree/Particle)
 Thermal correction to Energy=                    0.066879
 Thermal correction to Enthalpy=                  0.067823
 Thermal correction to Gibbs Free Energy=         0.035322
 Sum of electronic and zero-point Energies=           -228.920866
 Sum of electronic and thermal Energies=              -228.916271
 Sum of electronic and thermal Enthalpies=            -228.915327
 Sum of electronic and thermal Free Energies=         -228.947827

                     E (Thermal)             CV                S
                      KCal/Mol        Cal/Mol-Kelvin    Cal/Mol-Kelvin
 Total                   41.967             14.534             68.404
 Electronic               0.000              0.000              0.000
 Translational            0.889              2.981             38.196
 Rotational               0.889              2.981             23.862
 Vibrational             40.190              8.572              6.345
 Vibration     1          0.605              1.944              3.330
 Vibration     2          0.783              1.425              0.889
 Vibration     3          0.798              1.387              0.832
 Vibration     4          0.962              1.024              0.444
 Vibration     5          0.963              1.021              0.441

 1\1\GINC-KATANA1\Freq\RM062X\6-31+G(d)\C2H4O2\Z5358697\19-Mar-2025\0\\
 #N Geom=AllCheck Guess=TCheck SCRF=Check GenChk RM062X/6-31+G(d) Freq\
 \acetic acid\\0,1\C,-1.0103405403,0.3037121417,-0.150817625\C,-1.58671
 89036,0.5757172525,1.2220907126\O,-2.4327756387,-0.0880539378,1.751541
 9936\O,-1.0791253837,1.6592506827,1.8617961722\H,-1.1842051443,1.15749
 30129,-0.8140834109\H,0.0696530121,0.1351590496,-0.0848756208\H,-1.487
 985831,-0.581261553,-0.5692144808\H,-0.4060015704,2.1002833512,1.32266
 22591\\Version=ES64L-G09RevD.01\State=1-A\HF=-228.9831496\RMSD=2.347e-

 Normal termination of Gaussian 09 at Wed Mar 19 12:13:11 2025.
