 Gaussian 09, Revision D.01,
 Gaussian 09:  ES64L-G09RevD.01 24-Apr-2013

 ---------------------------------
 #m062X/6-31+G(d) OPT Freq=noraman
 ---------------------------------

 -----------
 cyclohexene
 -----------
 Symbolic Z-matrix:
 Charge =  0 Multiplicity = 1

 SCF Done:  E(RM062X) =  -234.531037221     A.U. after   12 cycles
 SCF Done:  E(RM062X) =  -234.531706907     A.U. after   10 cycles
 SCF Done:  E(RM062X) =  -234.531779134     A.U. after    9 cycles
 SCF Done:  E(RM062X) =  -234.531781636     A.U. after    8 cycles
 SCF Done:  E(RM062X) =  -234.531781814     A.U. after    7 cycles
 Optimization completed.
    -- Stationary point found.
 Normal termination of Gaussian 09 at Tue Mar 18 09:56:29 2025.

 ---------------------------------------------------------------------
 #N Geom=AllCheck Guess=TCheck SCRF=Check GenChk RM062X/6-31+G(d) Freq
 ---------------------------------------------------------------------

 Structure from the checkpoint file:  "/srv/scratch/z5358697/gauss/Gau-2314971.chk"
 -----------
 cyclohexene
 -----------
 Charge =  0 Multiplicity = 1

                         Standard orientation:
 ---------------------------------------------------------------------
 Center     Atomic      Atomic             Coordinates (Angstroms)
 Number     Number       Type             X           Y           Z
 ---------------------------------------------------------------------
      1          6           0        0.690195   -1.183074    0.329688
      2          6           0       -0.690189   -1.183071   -0.329704
      3          6           0       -1.494854    0.041847    0.112468
      4          6           0       -0.665251    1.300169    0.060422
      5          6           0        0.665239    1.300173   -0.060427
      6          6           0        1.494856    0.041860   -0.112448
      7          1           0        1.236604   -2.102017    0.090095
      8          1           0        0.564814   -1.158058    1.421017
      9          1           0       -0.564812   -1.158023   -1.421032
     10          1           0       -1.236589   -2.102024   -0.090132
     11          1           0       -2.383612    0.161640   -0.519706
     12          1           0       -1.871534   -0.105051    1.135724
     13          1           0       -1.195173    2.249730    0.119491
     14          1           0        1.195153    2.249736   -0.119529
     15          1           0        1.871582   -0.105022   -1.135688
     16          1           0        2.383586    0.161662    0.519765
 ---------------------------------------------------------------------

 SCF Done:  E(RM062X) =  -234.531781814     A.U. after    1 cycles

 The electronic state is 1-A.
 Alpha  occ. eigenvalues --  -10.54368 -10.54366 -10.54283 -10.54176 -10.54060
 Alpha  occ. eigenvalues --  -10.54024  -0.93409  -0.83532  -0.83414  -0.70243
 Alpha  occ. eigenvalues --   -0.68051  -0.58584  -0.56484  -0.51581  -0.49279
 Alpha  occ. eigenvalues --   -0.46972  -0.45086  -0.44300  -0.44059  -0.38669
 Alpha  occ. eigenvalues --   -0.37198  -0.35972  -0.29572
 Alpha virt. eigenvalues --    0.02317   0.03693   0.03804   0.04559   0.05016
 Alpha virt. eigenvalues --    0.05504   0.05735   0.08322   0.08661   0.09052
 Alpha virt. eigenvalues --    0.10722   0.10993   0.12193   0.12782   0.13194

 Mulliken charges:
               1
     1  C   -0.464385
     2  C   -0.464391
     3  C   -0.623303
     4  C    0.035094
     5  C    0.035091
     6  C   -0.623303
     7  H    0.207773
     8  H    0.217411
     9  H    0.217412
    10  H    0.207773
    11  H    0.213755
    12  H    0.223101
    13  H    0.190557
    14  H    0.190557
    15  H    0.223100
    16  H    0.213756
 Sum of Mulliken charges =   0.00000

 Dipole moment (field-independent basis, Debye):
    X=              0.0000    Y=             -0.3258    Z=              0.0000  Tot=              0.3258
 Quadrupole moment (field-independent basis, Debye-Ang):
   XX=            -37.3062   YY=            -38.5138   ZZ=            -40.1103
   XY=              0.0000   XZ=             -0.2856   YZ=             -0.0001

  Exact polarizability:  77.230   0.000  66.529  -1.596   0.000  54.628
 Approx polarizability:  90.355   0.000  71.070  -2.921   0.000  67.355

                      1                      2                      3
                      A                      A                      A
 Frequencies --    167.5774               287.3334               399.6655
 Red. masses --      1.7568                 1.8609                 1.8704
 Frc consts  --      0.0291                 0.0905                 0.1760
 IR Inten    --      0.3117                 0.0514                 0.0231

                      4                      5                      6
                      A                      A                      A
 Frequencies --    456.7148               500.9766               653.7042
 Red. masses --      2.3173                 4.3118                 1.3527
 Frc consts  --      0.2848                 0.6376                 0.3406
 IR Inten    --      0.8468                 0.0188                25.6905

                      7                      8                      9
                      A                      A                      A
 Frequencies --    738.5802               828.7506               849.3415
 Red. masses --      1.5782                 1.3674                 3.6201
 Frc consts  --      0.5072                 0.5534                 1.5386
 IR Inten    --     15.5657                 1.0360                 0.0018

                     10                     11                     12
                      A                      A                      A
 Frequencies --    902.9368               931.5008               942.0880
 Red. masses --      2.3143                 2.3486                 1.4053
 Frc consts  --      1.1117                 1.2007                 0.7349
 IR Inten    --      5.2592                 0.9804                 5.9771

                     13                     14                     15
                      A                      A                      A
 Frequencies --   1015.3218              1020.4754              1063.9989
 Red. masses --      1.1772                 3.0041                 1.5234
 Frc consts  --      0.7150                 1.8432                 1.0162
 IR Inten    --      0.0001                 1.0321                 3.9241

                     16                     17                     18
                      A                      A                      A
 Frequencies --   1096.7448              1106.6865              1168.5443
 Red. masses --      1.6747                 1.9022                 1.1689
 Frc consts  --      1.1868                 1.3726                 0.9404
 IR Inten    --      0.0356                 0.0346                 6.7526

                     19                     20                     21
                      A                      A                      A
 Frequencies --   1170.2622              1258.4169              1281.8948
 Red. masses --      1.1180                 1.2051                 1.2783
 Frc consts  --      0.9021                 1.1244                 1.2377
 IR Inten    --      0.0997                 0.0991                 0.4276

                     22                     23                     24
                      A                      A                      A
 Frequencies --   1301.3040              1357.0454              1392.5611
 Red. masses --      1.1680                 1.3038                 1.8106
 Frc consts  --      1.1654                 1.4147                 2.0687
 IR Inten    --      2.5510                 1.9162                 1.2132

                     25                     26                     27
                      A                      A                      A
 Frequencies --   1393.2817              1397.3838              1435.9359
 Red. masses --      1.5171                 1.5804                 1.6266
 Frc consts  --      1.7352                 1.8182                 1.9760
 IR Inten    --      0.3045                 0.0178                 0.0335

                     28                     29                     30
                      A                      A                      A
 Frequencies --   1493.3009              1499.8385              1511.9860
 Red. masses --      1.0890                 1.0851                 1.0927
 Frc consts  --      1.4308                 1.4381                 1.4718
 IR Inten    --      0.0868                 9.0158                 6.2322

                     31                     32                     33
                      A                      A                      A
 Frequencies --   1523.0623              1755.8718              3043.0136
 Red. masses --      1.1060                 6.6702                 1.0683
 Frc consts  --      1.5116                12.1165                 5.8284
 IR Inten    --      2.3435                 4.6380                 0.2147

                     34                     35                     36
                      A                      A                      A
 Frequencies --   3043.0444              3057.5971              3063.4639
 Red. masses --      1.0678                 1.0667                 1.0620
 Frc consts  --      5.8256                 5.8754                 5.8721
 IR Inten    --     57.6886                17.0152                28.5017

                     37                     38                     39
                      A                      A                      A
 Frequencies --   3090.9879              3091.2974              3113.1244
 Red. masses --      1.0925                 1.0940                 1.0975
 Frc consts  --      6.1498                 6.1597                 6.2671
 IR Inten    --     69.3784                 0.3275                49.8088

                     40                     41                     42
                      A                      A                      A
 Frequencies --   3115.9578              3172.4731              3194.5192
 Red. masses --      1.1049                 1.0848                 1.0974
 Frc consts  --      6.3203                 6.4326                 6.5980
 IR Inten    --     48.5523                 7.1879                37.3161

 - Thermochemistry -
 -------------------
 Temperature   298.150 Kelvin.  Pressure   1.00000 Atm.
 Atom     1 has atomic number  6 and mass  12.00000

 Molecular mass:    82.07825 amu.
 Principal axes and moments of inertia in atomic units:
                           1         2         3
     Eigenvalues --   379.62538 396.60444 702.95826
           X            1.00000   0.00000  -0.00253
           Y            0.00000   1.00000   0.00000
           Z            0.00253   0.00000   1.00000
 This molecule is an asymmetric top.
 Rotational symmetry number  1.
 Rotational temperatures (Kelvin)      0.22816     0.21839     0.12321
 Rotational constants (GHZ):           4.75401     4.55048     2.56735
 Zero-point vibrational energy     388119.8 (Joules/Mol)
                                   92.76286 (Kcal/Mol)
 Warning -- explicit consideration of   5 degrees of freedom as
           vibrations may cause significant error
 Vibrational temperatures:    241.11   413.41   575.03   657.11   720.79
          (Kelvin)            940.53  1062.65  1192.39  1222.01  1299.12
                             1340.22  1355.45  1460.82  1468.23  1530.86
                             1577.97  1592.27  1681.27  1683.74  1810.58
                             1844.36  1872.28  1952.48  2003.58  2004.62
                             2010.52  2065.99  2148.52  2157.93  2175.41
                             2191.34  2526.30  4378.21  4378.26  4399.19
                             4407.64  4447.24  4447.68  4479.09  4483.16
                             4564.48  4596.19

 Zero-point correction=                           0.147827 (Hartree/Particle)
 Thermal correction to Energy=                    0.153295
 Thermal correction to Enthalpy=                  0.154239
 Thermal correction to Gibbs Free Energy=         0.119222
 Sum of electronic and zero-point Energies=           -234.383955
 Sum of electronic and thermal Energies=              -234.378487
 Sum of electronic and thermal Enthalpies=            -234.377543
 Sum of electronic and thermal Free Energies=         -234.412560

                     E (Thermal)             CV                S
                      KCal/Mol        Cal/Mol-Kelvin    Cal/Mol-Kelvin
 Total                   96.194             21.235             73.698
 Electronic               0.000              0.000              0.000
 Translational            0.889              2.981             39.129
 Rotational               0.889              2.981             26.162
 Vibrational             94.416             15.273              8.407
 Vibration     1          0.624              1.882              2.462
 Vibration     2          0.685              1.697              1.490
 Vibration     3          0.766              1.471              0.964
 Vibration     4          0.815              1.346              0.776
 Vibration     5          0.856              1.248              0.656

 Optimization completed.
    -- Stationary point found.
 Normal termination of Gaussian 09 at Tue Mar 18 10:00:37 2025.
