 Gaussian 09, Revision D.01,
 Gaussian 09:  ES64L-G09RevD.01 24-Apr-2013

 ---------------------------------
 #m062X/6-31+G(d) OPT Freq=noraman
 ---------------------------------

 ---------------------------------------
 1,1-dioxido-2,3,4,5-tetrahydrothiophene
 ---------------------------------------
 Symbolic Z-matrix:
 Charge =  0 Multiplicity = 1

 SCF Done:  E(RM062X) =  -705.653249446     A.U. after   13 cycles
 SCF Done:  E(RM062X) =  -705.655198874     A.U. after   12 cycles
 SCF Done:  E(RM062X) =  -705.655390764     A.U. after   11 cycles
 SCF Done:  E(RM062X) =  -705.655395388     A.U. after    9 cycles
 Optimization completed.
    -- Stationary point found.
 Normal termination of Gaussian 09 at Mon Mar 17 18:56:09 2025.

 ---------------------------------------------------------------------
 #N Geom=AllCheck Guess=TCheck SCRF=Check GenChk RM062X/6-31+G(d) Freq
 ---------------------------------------------------------------------

 Structure from the checkpoint file:  "/srv/scratch/z5358697/gauss/Gau-2757973.chk"
 ---------------------------------------
 1,1-dioxido-2,3,4,5-tetrahydrothiophene
 ---------------------------------------
 Charge =  0 Multiplicity = 1

                         Standard orientation:
 ---------------------------------------------------------------------
 Center     Atomic      Atomic             Coordinates (Angstroms)
 Number     Number       Type             X           Y           Z
 ---------------------------------------------------------------------
      1          6           0       -1.768192   -0.755603    0.145421
      2          6           0       -1.768575    0.755353   -0.145394
      3          6           0       -0.440362    1.296846    0.384661
      4         16           0        0.777103    0.000045    0.000055
      5          6           0       -0.440206   -1.296442   -0.385765
      6          8           0        1.502352   -0.358137    1.219817
      7          8           0        1.504092    0.357854   -1.218765
      8          1           0       -2.613513   -1.262709   -0.327028
      9          1           0       -1.835809   -0.925967    1.226084
     10          1           0       -1.837159    0.925535   -1.226027
     11          1           0       -2.613713    1.262188    0.327662
     12          1           0       -0.097369    2.218799   -0.088073
     13          1           0       -0.443242    1.405550    1.472170
     14          1           0       -0.443505   -1.403896   -1.473404
     15          1           0       -0.096884   -2.218886    0.085784
 ---------------------------------------------------------------------

 SCF Done:  E(RM062X) =  -705.655395388     A.U. after    1 cycles

 The electronic state is 1-A.
 Alpha  occ. eigenvalues --  -90.13713 -19.63763 -19.63761 -10.59460 -10.59459
 Alpha  occ. eigenvalues --  -10.58691 -10.58657  -8.45263  -6.37403  -6.37338
 Alpha  occ. eigenvalues --   -6.37323  -1.22579  -1.11913  -0.97091  -0.86402
 Alpha  occ. eigenvalues --   -0.81903  -0.70703  -0.67737  -0.60086  -0.58983
 Alpha  occ. eigenvalues --   -0.54195  -0.54133  -0.52176  -0.51905  -0.47195
 Alpha  occ. eigenvalues --   -0.45856  -0.44712  -0.43677  -0.39339  -0.38790
 Alpha  occ. eigenvalues --   -0.37255  -0.34622
 Alpha virt. eigenvalues --    0.00383   0.02265   0.02347   0.02788   0.05423
 Alpha virt. eigenvalues --    0.05943   0.06564   0.06851   0.06873   0.08905
 Alpha virt. eigenvalues --    0.09112   0.09135   0.10088   0.11148   0.11195

 Mulliken charges:
               1
     1  C   -0.399323
     2  C   -0.398944
     3  C   -0.787489
     4  S    1.427163
     5  C   -0.787142
     6  O   -0.578472
     7  O   -0.578404
     8  H    0.240156
     9  H    0.247160
    10  H    0.247093
    11  H    0.240152
    12  H    0.283081
    13  H    0.280970
    14  H    0.280913
    15  H    0.283087
 Sum of Mulliken charges =   0.00000

 Dipole moment (field-independent basis, Debye):
    X=             -5.6817    Y=              0.0010    Z=             -0.0028  Tot=              5.6817
 Quadrupole moment (field-independent basis, Debye-Ang):
   XX=            -55.0638   YY=            -44.9026   ZZ=            -54.3628
   XY=             -0.0006   XZ=              0.0012   YZ=              2.9820

  Exact polarizability:  72.884   0.000  65.027  -0.002  -0.246  63.524
 Approx polarizability:  81.536   0.000  74.715  -0.006  -2.811  83.836

                      1                      2                      3
                      A                      A                      A
 Frequencies --      7.7541               234.7334               318.7004
 Red. masses --      2.9478                 2.7769                 2.1239
 Frc consts  --      0.0001                 0.0901                 0.1271
 IR Inten    --      3.1361                 0.1033                 0.0681

                      4                      5                      6
                      A                      A                      A
 Frequencies --    365.6040               368.2028               430.4829
 Red. masses --      2.8750                 6.8532                 5.8784
 Frc consts  --      0.2264                 0.5474                 0.6418
 IR Inten    --      1.3487                14.0338                32.1434

                      7                      8                      9
                      A                      A                      A
 Frequencies --    512.1884               557.0061               677.2141
 Red. masses --      2.1055                 6.6907                 3.7796
 Frc consts  --      0.3254                 1.2230                 1.0213
 IR Inten    --      4.6812                20.1822                 8.6326

                     10                     11                     12
                      A                      A                      A
 Frequencies --    747.1577               814.7750               902.9926
 Red. masses --      2.8404                 1.4701                 2.5116
 Frc consts  --      0.9342                 0.5750                 1.2066
 IR Inten    --     53.9269                 1.4848                 0.2600

                     13                     14                     15
                      A                      A                      A
 Frequencies --    916.7355               929.4815               998.8337
 Red. masses --      1.4083                 2.6704                 1.7396
 Frc consts  --      0.6973                 1.3593                 1.0225
 IR Inten    --      5.4274                18.9322                 0.0898

                     16                     17                     18
                      A                      A                      A
 Frequencies --   1020.5945              1063.6916              1101.0049
 Red. masses --      1.3089                 1.6208                 1.1212
 Frc consts  --      0.8033                 1.0805                 0.8008
 IR Inten    --      0.1874                 2.7705                 3.1164

                     19                     20                     21
                      A                      A                      A
 Frequencies --   1129.8456              1178.1383              1235.3157
 Red. masses --      4.7285                 1.8087                 1.4734
 Frc consts  --      3.5564                 1.4791                 1.3247
 IR Inten    --    128.7382                79.6479                 0.2906

                     22                     23                     24
                      A                      A                      A
 Frequencies --   1236.7856              1290.2066              1317.1609
 Red. masses --      1.5283                 1.3424                 1.4265
 Frc consts  --      1.3773                 1.3165                 1.4582
 IR Inten    --      2.0121                28.6707                27.4967

                     25                     26                     27
                      A                      A                      A
 Frequencies --   1340.9028              1358.7736              1374.4851
 Red. masses --      4.1233                 1.6478                 1.3638
 Frc consts  --      4.3681                 1.7925                 1.5180
 IR Inten    --    174.9093                45.9829                 0.0117

                     28                     29                     30
                      A                      A                      A
 Frequencies --   1475.4376              1478.4963              1510.0877
 Red. masses --      1.0828                 1.0985                 1.0831
 Frc consts  --      1.3888                 1.4148                 1.4552
 IR Inten    --      2.3142                14.2919                 7.8157

                     31                     32                     33
                      A                      A                      A
 Frequencies --   1523.6849              3090.1565              3097.4146
 Red. masses --      1.1041                 1.0678                 1.0622
 Frc consts  --      1.5102                 6.0079                 6.0039
 IR Inten    --      2.0576                10.8917                20.5556

                     34                     35                     36
                      A                      A                      A
 Frequencies --   3125.0110              3125.1781              3154.9226
 Red. masses --      1.0596                 1.0595                 1.0991
 Frc consts  --      6.0970                 6.0968                 6.4459
 IR Inten    --      0.8596                 1.3554                11.3674

                     37                     38                     39
                      A                      A                      A
 Frequencies --   3159.3687              3197.8557              3198.6046
 Red. masses --      1.1037                 1.1089                 1.1093
 Frc consts  --      6.4908                 6.6815                 6.6871
 IR Inten    --     13.7432                 0.1011                 0.1300

 - Thermochemistry -
 -------------------
 Temperature   298.150 Kelvin.  Pressure   1.00000 Atm.
 Atom     1 has atomic number  6 and mass  12.00000

 Molecular mass:   120.02450 amu.
 Principal axes and moments of inertia in atomic units:
                           1         2         3
     Eigenvalues --   486.55739 894.33985 959.72276
           X            1.00000  -0.00001   0.00001
           Y            0.00001   0.99205   0.12585
           Z           -0.00001  -0.12585   0.99205
 This molecule is an asymmetric top.
 Rotational symmetry number  1.
 Warning -- assumption of classical behavior for rotation
           may cause significant error
 Rotational temperatures (Kelvin)      0.17801     0.09685     0.09025
 Rotational constants (GHZ):           3.70921     2.01796     1.88048
 Zero-point vibrational energy     326371.1 (Joules/Mol)
                                   78.00456 (Kcal/Mol)
 Warning -- explicit consideration of   8 degrees of freedom as
           vibrations may cause significant error
 Vibrational temperatures:     11.16   337.73   458.54   526.02   529.76
          (Kelvin)            619.37   736.92   801.41   974.36  1074.99
                             1172.28  1299.20  1318.98  1337.31  1437.10
                             1468.41  1530.41  1584.10  1625.59  1695.08
                             1777.34  1779.46  1856.32  1895.10  1929.26
                             1954.97  1977.58  2122.82  2127.22  2172.68
                             2192.24  4446.04  4456.48  4496.19  4496.43
                             4539.22  4545.62  4601.00  4602.07

 Zero-point correction=                           0.124308 (Hartree/Particle)
 Thermal correction to Energy=                    0.131047
 Thermal correction to Enthalpy=                  0.131991
 Thermal correction to Gibbs Free Energy=         0.091370
 Sum of electronic and zero-point Energies=           -705.531087
 Sum of electronic and thermal Energies=              -705.524349
 Sum of electronic and thermal Enthalpies=            -705.523404
 Sum of electronic and thermal Free Energies=         -705.564026

                     E (Thermal)             CV                S
                      KCal/Mol        Cal/Mol-Kelvin    Cal/Mol-Kelvin
 Total                   82.233             25.011             85.494
 Electronic               0.000              0.000              0.000
 Translational            0.889              2.981             40.262
 Rotational               0.889              2.981             27.526
 Vibrational             80.456             19.050             17.706
 Vibration     1          0.593              1.987              8.516
 Vibration     2          0.655              1.788              1.842
 Vibration     3          0.705              1.638              1.317
 Vibration     4          0.739              1.543              1.098
 Vibration     5          0.741              1.538              1.087
 Vibration     6          0.792              1.404              0.857
 Vibration     7          0.867              1.223              0.628
 Vibration     8          0.913              1.124              0.530

 Normal termination of Gaussian 09 at Mon Mar 17 19:01:05 2025.
