 Gaussian 09, Revision D.01,
 Gaussian 09:  ES64L-G09RevD.01 24-Apr-2013

 ---------------------------------
 #m062X/6-31+G(d) OPT Freq=noraman
 ---------------------------------

 ------------------
 1,1-difluoroethane
 ------------------
 Symbolic Z-matrix:
 Charge =  0 Multiplicity = 1

 SCF Done:  E(RM062X) =  -278.209498289     A.U. after   11 cycles
 SCF Done:  E(RM062X) =  -278.210054645     A.U. after   10 cycles
 SCF Done:  E(RM062X) =  -278.210119926     A.U. after    9 cycles
 SCF Done:  E(RM062X) =  -278.210123374     A.U. after    8 cycles
 SCF Done:  E(RM062X) =  -278.210123962     A.U. after    7 cycles
 SCF Done:  E(RM062X) =  -278.210124141     A.U. after    6 cycles
 Optimization completed.
    -- Stationary point found.

 1\1\GINC-KATANA3\FOpt\RM062X\6-31+G(d)\C2H4F2\Z5358697\19-Mar-2025\0\\
 #m062X/6-31+G(d) OPT Freq=noraman\\1,1-difluoroethane\\0,1\C,-0.375773
 0715,0.2926716109,-0.6298642184\C,0.2953025188,-0.3474261944,0.5531808
 37\F,0.0600348818,0.3912858194,1.6789127616\F,1.6495463911,-0.36437465
 06,0.3684906033\H,-0.1658266109,-0.2840929277,-1.5336109933\H,-1.45564
 82239,0.3311491392,-0.4689258219\H,0.0081270322,1.3086136669,-0.751951
 1401\H,-0.0202629177,-1.3730264638,0.7617679719\\Version=ES64L-G09RevD
 .01\State=1-A\HF=-278.2101241\RMSD=8.641e-09\RMSF=2.578e-05\Dipole=-0.

 Normal termination of Gaussian 09 at Wed Mar 19 12:14:00 2025.

 ---------------------------------------------------------------------
 #N Geom=AllCheck Guess=TCheck SCRF=Check GenChk RM062X/6-31+G(d) Freq
 ---------------------------------------------------------------------

 Structure from the checkpoint file:  "/srv/scratch/z5358697/gauss/Gau-3514113.chk"
 ------------------
 1,1-difluoroethane
 ------------------
 Charge =  0 Multiplicity = 1

                         Standard orientation:
 ---------------------------------------------------------------------
 Center     Atomic      Atomic             Coordinates (Angstroms)
 Number     Number       Type             X           Y           Z
 ---------------------------------------------------------------------
      1          6           0        1.369528    0.000119   -0.089412
      2          6           0       -0.064592   -0.000003    0.361102
      3          9           0       -0.709833   -1.097193   -0.137052
      4          9           0       -0.710082    1.097067   -0.137049
      5          1           0        1.877771    0.890609    0.287695
      6          1           0        1.877230   -0.891444    0.285907
      7          1           0        1.400869    0.001260   -1.181859
      8          1           0       -0.206256    0.000013    1.445020
 ---------------------------------------------------------------------

 SCF Done:  E(RM062X) =  -278.210124141     A.U. after    1 cycles

 The electronic state is 1-A.
 Alpha  occ. eigenvalues --  -25.27277 -25.27277 -10.71719 -10.56277  -1.39815
 Alpha  occ. eigenvalues --   -1.33803  -0.88326  -0.75105  -0.64798  -0.63598
 Alpha  occ. eigenvalues --   -0.59741  -0.53006  -0.50585  -0.50145  -0.47494
 Alpha  occ. eigenvalues --   -0.47194  -0.42022
 Alpha virt. eigenvalues --    0.02550   0.03703   0.05308   0.05493   0.07735
 Alpha virt. eigenvalues --    0.08135   0.08493   0.14877   0.18540   0.18557
 Alpha virt. eigenvalues --    0.24002   0.24496   0.27211   0.27406   0.28258

 Mulliken charges:
               1
     1  C   -0.747791
     2  C    0.472958
     3  F   -0.308520
     4  F   -0.308539
     5  H    0.231108
     6  H    0.231129
     7  H    0.241677
     8  H    0.187978
 Sum of Mulliken charges =   0.00000

 Dipole moment (field-independent basis, Debye):
    X=              2.1159    Y=              0.0001    Z=              1.1840  Tot=              2.4247
 Quadrupole moment (field-independent basis, Debye-Ang):
   XX=            -23.1183   YY=            -25.7796   ZZ=            -21.6440
   XY=              0.0003   XZ=             -0.5997   YZ=             -0.0002

  Exact polarizability:  26.528   0.000  26.295  -0.014   0.000  25.427
 Approx polarizability:  26.595   0.000  29.143   0.657   0.000  27.549

                      1                      2                      3
                      A                      A                      A
 Frequencies --    215.9928               383.1324               470.4342
 Red. masses --      1.0643                 3.0021                 4.3144
 Frc consts  --      0.0293                 0.2596                 0.5626
 IR Inten    --      0.0469                 0.0523                14.9663

                      4                      5                      6
                      A                      A                      A
 Frequencies --    571.1005               889.6602               974.2309
 Red. masses --      4.1034                 2.1549                 1.8609
 Frc consts  --      0.7885                 1.0049                 1.0407
 IR Inten    --      6.4983                 7.7974                51.7353

                      7                      8                      9
                      A                      A                      A
 Frequencies --   1167.8235              1186.0514              1188.0483
 Red. masses --      2.1630                 2.8547                 3.1523
 Frc consts  --      1.7380                 2.3660                 2.6215
 IR Inten    --     30.0699               177.0356               105.4310

                     10                     11                     12
                      A                      A                      A
 Frequencies --   1402.5026              1405.8397              1463.8870
 Red. masses --      1.2336                 1.2037                 1.5850
 Frc consts  --      1.4296                 1.4016                 2.0012
 IR Inten    --      3.7757                37.0560                83.4185

                     13                     14                     15
                      A                      A                      A
 Frequencies --   1505.5888              1507.4544              3093.6366
 Red. masses --      1.0565                 1.0586                 1.0352
 Frc consts  --      1.4110                 1.4174                 5.8373
 IR Inten    --      0.7047                 6.4325                 1.8456

                     16                     17                     18
                      A                      A                      A
 Frequencies --   3163.0351              3184.0476              3186.9446
 Red. masses --      1.0905                 1.1039                 1.1017
 Frc consts  --      6.4281                 6.5937                 6.5925
 IR Inten    --     25.1973                 5.9859                22.3985

 - Thermochemistry -
 -------------------
 Temperature   298.150 Kelvin.  Pressure   1.00000 Atm.
 Atom     1 has atomic number  6 and mass  12.00000

 Molecular mass:    66.02811 amu.
 Principal axes and moments of inertia in atomic units:
                           1         2         3
     Eigenvalues --   190.51588 200.91656 348.48631
           X            0.99977   0.00031  -0.02167
           Y           -0.00031   1.00000   0.00000
           Z            0.02167   0.00001   0.99977
 This molecule is an asymmetric top.
 Rotational symmetry number  1.
 Rotational temperatures (Kelvin)      0.45463     0.43109     0.24854
 Rotational constants (GHZ):           9.47292     8.98254     5.17880
 Zero-point vibrational energy     161253.1 (Joules/Mol)
                                   38.54041 (Kcal/Mol)
 Warning -- explicit consideration of   4 degrees of freedom as
           vibrations may cause significant error
 Vibrational temperatures:    310.77   551.24   676.85   821.69  1280.02
          (Kelvin)           1401.70  1680.24  1706.46  1709.33  2017.89
                             2022.69  2106.20  2166.20  2168.89  4451.05
                             4550.90  4581.13  4585.30

 Zero-point correction=                           0.061418 (Hartree/Particle)
 Thermal correction to Energy=                    0.065717
 Thermal correction to Enthalpy=                  0.066662
 Thermal correction to Gibbs Free Energy=         0.034686
 Sum of electronic and zero-point Energies=           -278.148706
 Sum of electronic and thermal Energies=              -278.144407
 Sum of electronic and thermal Enthalpies=            -278.143463
 Sum of electronic and thermal Free Energies=         -278.175438

                     E (Thermal)             CV                S
                      KCal/Mol        Cal/Mol-Kelvin    Cal/Mol-Kelvin
 Total                   41.238             13.709             67.298
 Electronic               0.000              0.000              0.000
 Translational            0.889              2.981             38.481
 Rotational               0.889              2.981             24.104
 Vibrational             39.461              7.747              4.713
 Vibration     1          0.645              1.817              1.992
 Vibration     2          0.752              1.506              1.027
 Vibration     3          0.827              1.316              0.736
 Vibration     4          0.927              1.094              0.502

 Optimization completed.
    -- Stationary point found.

 1\1\GINC-KATANA3\Freq\RM062X\6-31+G(d)\C2H4F2\Z5358697\19-Mar-2025\0\\
 #N Geom=AllCheck Guess=TCheck SCRF=Check GenChk RM062X/6-31+G(d) Freq\
 \1,1-difluoroethane\\0,1\C,-0.3757730715,0.2926716109,-0.6298642184\C,
 0.2953025188,-0.3474261944,0.553180837\F,0.0600348818,0.3912858194,1.6
 789127616\F,1.6495463911,-0.3643746506,0.3684906033\H,-0.1658266109,-0
 .2840929277,-1.5336109933\H,-1.4556482239,0.3311491392,-0.4689258219\H
 ,0.0081270322,1.3086136669,-0.7519511401\H,-0.0202629177,-1.3730264638
 ,0.7617679719\\Version=ES64L-G09RevD.01\State=1-A\HF=-278.2101241\RMSD

 Normal termination of Gaussian 09 at Wed Mar 19 12:14:38 2025.
