 Gaussian 09, Revision D.01,
 Gaussian 09:  ES64L-G09RevD.01 24-Apr-2013

 ---------------------------------
 #m062X/6-31+G(d) OPT Freq=noraman
 ---------------------------------

 --------------------------------
 5-fluoro-1H-pyrimidine-2,4-dione
 --------------------------------
 Symbolic Z-matrix:
 Charge =  0 Multiplicity = 1

 SCF Done:  E(RM062X) =  -513.863363528     A.U. after   14 cycles
 SCF Done:  E(RM062X) =  -513.866655966     A.U. after   12 cycles
 SCF Done:  E(RM062X) =  -513.866779553     A.U. after   11 cycles
 SCF Done:  E(RM062X) =  -513.866798632     A.U. after   10 cycles
 SCF Done:  E(RM062X) =  -513.866797752     A.U. after   10 cycles
 SCF Done:  E(RM062X) =  -513.866802200     A.U. after    9 cycles
 Optimization completed.
    -- Stationary point found.
 Normal termination of Gaussian 09 at Sun Mar 16 20:16:31 2025.

 ---------------------------------------------------------------------
 #N Geom=AllCheck Guess=TCheck SCRF=Check GenChk RM062X/6-31+G(d) Freq
 ---------------------------------------------------------------------

 Structure from the checkpoint file:  "/srv/scratch/z5358697/gauss/Gau-3540104.chk"
 --------------------------------
 5-fluoro-1H-pyrimidine-2,4-dione
 --------------------------------
 Charge =  0 Multiplicity = 1

                         Standard orientation:
 ---------------------------------------------------------------------
 Center     Atomic      Atomic             Coordinates (Angstroms)
 Number     Number       Type             X           Y           Z
 ---------------------------------------------------------------------
      1          6           0       -0.226579   -1.508360    0.000010
      2          6           0       -1.140804   -0.528158    0.000003
      3          6           0       -0.752021    0.885694   -0.000033
      4          8           0       -1.511081    1.827450   -0.000010
      5          7           0        0.638283    1.050667    0.000112
      6          6           0        1.625180    0.076390    0.000036
      7          8           0        2.811718    0.323981   -0.000122
      8          7           0        1.120654   -1.211841    0.000096
      9          9           0       -2.448437   -0.793638   -0.000047
     10          1           0       -0.504797   -2.555511   -0.000010
     11          1           0        0.973960    2.009266    0.000060
     12          1           0        1.814457   -1.947638   -0.000120
 ---------------------------------------------------------------------

 SCF Done:  E(RM062X) =  -513.866802200     A.U. after    1 cycles

 The electronic state is 1-A.
 Alpha  occ. eigenvalues --  -25.30501 -19.65311 -19.64899 -14.85552 -14.84069
 Alpha  occ. eigenvalues --  -10.73004 -10.70191 -10.66951 -10.65270  -1.40156
 Alpha  occ. eigenvalues --   -1.22644  -1.19853  -1.11685  -1.06072  -0.92181
 Alpha  occ. eigenvalues --   -0.80741  -0.77964  -0.71346  -0.68604  -0.62166
 Alpha  occ. eigenvalues --   -0.60924  -0.60534  -0.58369  -0.57017  -0.55168
 Alpha  occ. eigenvalues --   -0.53656  -0.50429  -0.49822  -0.45251  -0.39656
 Alpha  occ. eigenvalues --   -0.37267  -0.36726  -0.31678
 Alpha virt. eigenvalues --   -0.02867  -0.01115   0.01384   0.02484   0.02893
 Alpha virt. eigenvalues --    0.03470   0.04170   0.05983   0.06806   0.07480
 Alpha virt. eigenvalues --    0.08755   0.09373   0.10093   0.12044   0.12289

 Mulliken charges:
               1
     1  C   -0.084249
     2  C    0.446626
     3  C    0.473370
     4  O   -0.464166
     5  N   -0.774458
     6  C    0.704949
     7  O   -0.513176
     8  N   -0.661648
     9  F   -0.335170
    10  H    0.260351
    11  H    0.476404
    12  H    0.471167
 Sum of Mulliken charges =   0.00000

 Dipole moment (field-independent basis, Debye):
    X=              1.1927    Y=             -4.0108    Z=             -0.0002  Tot=              4.1844
 Quadrupole moment (field-independent basis, Debye-Ang):
   XX=            -66.7724   YY=            -42.9811   ZZ=            -50.2709
   XY=              0.9272   XZ=              0.0001   YZ=              0.0008

  Exact polarizability:  85.958  -8.339  71.940  -0.001   0.000  35.390
 Approx polarizability: 105.414 -15.310  88.518  -0.001   0.000  44.766

                      1                      2                      3
                      A                      A                      A
 Frequencies --    110.9442               149.5645               303.1572
 Red. masses --     13.4333                 8.1574                15.4992
 Frc consts  --      0.0974                 0.1075                 0.8393
 IR Inten    --      1.1712                 0.2439                 1.0694

                      4                      5                      6
                      A                      A                      A
 Frequencies --    341.2780               375.6140               398.1383
 Red. masses --     11.6337                 3.1891                12.9244
 Frc consts  --      0.7983                 0.2651                 1.2071
 IR Inten    --      7.7582                17.4620                21.6671

                      7                      8                      9
                      A                      A                      A
 Frequencies --    458.0677               540.5779               542.0892
 Red. masses --     11.2596                 1.1072                 8.4771
 Frc consts  --      1.3920                 0.1906                 1.4677
 IR Inten    --      7.9535                69.0171                 5.8873

                     10                     11                     12
                      A                      A                      A
 Frequencies --    635.8870               676.9717               735.9221
 Red. masses --      5.7765                 1.2060                 6.3091
 Frc consts  --      1.3762                 0.3256                 2.0132
 IR Inten    --      2.0597                68.5478                81.9047

                     13                     14                     15
                      A                      A                      A
 Frequencies --    758.5238               759.7689               824.9627
 Red. masses --      7.6166                11.5524                 7.6126
 Frc consts  --      2.5820                 3.9290                 3.0525
 IR Inten    --      9.2879                 2.5335                32.2176

                     16                     17                     18
                      A                      A                      A
 Frequencies --    923.4325               988.4349              1177.3245
 Red. masses --      1.3626                 2.7891                 1.9317
 Frc consts  --      0.6846                 1.6055                 1.5776
 IR Inten    --     33.8402                12.0833                24.7846

                     19                     20                     21
                      A                      A                      A
 Frequencies --   1217.9147              1306.8358              1373.5198
 Red. masses --      2.3276                 7.6717                 2.1675
 Frc consts  --      2.0342                 7.7194                 2.4093
 IR Inten    --    103.1745               266.7899                23.8653

                     22                     23                     24
                      A                      A                      A
 Frequencies --   1425.9122              1459.7199              1539.1772
 Red. masses --      1.6774                 3.0190                 4.0286
 Frc consts  --      2.0095                 3.7901                 5.6232
 IR Inten    --     10.6976                75.9059                68.6583

                     25                     26                     27
                      A                      A                      A
 Frequencies --   1773.0833              1852.1138              1870.1008
 Red. masses --      7.2218                 8.3197                10.6662
 Frc consts  --     13.3769                16.8148                21.9781
 IR Inten    --     49.5174              1146.9355               366.4618

                     28                     29                     30
                      A                      A                      A
 Frequencies --   3282.9382              3605.1530              3641.9965
 Red. masses --      1.0957                 1.0780                 1.0793
 Frc consts  --      6.9577                 8.2548                 8.4348
 IR Inten    --      4.1972                92.6499               136.3627

 - Thermochemistry -
 -------------------
 Temperature   298.150 Kelvin.  Pressure   1.00000 Atm.
 Atom     1 has atomic number  6 and mass  12.00000

 Molecular mass:   130.01786 amu.
 Principal axes and moments of inertia in atomic units:
                           1         2         3
     Eigenvalues --   562.951191282.933541845.88472
           X            0.99994  -0.01137   0.00000
           Y            0.01137   0.99994   0.00000
           Z            0.00000   0.00000   1.00000
 This molecule is an asymmetric top.
 Rotational symmetry number  1.
 Warning -- assumption of classical behavior for rotation
           may cause significant error
 Rotational temperatures (Kelvin)      0.15386     0.06751     0.04692
 Rotational constants (GHZ):           3.20586     1.40673     0.97771
 Zero-point vibrational energy     209640.3 (Joules/Mol)
                                   50.10524 (Kcal/Mol)
 Warning -- explicit consideration of   9 degrees of freedom as
           vibrations may cause significant error
 Vibrational temperatures:    159.62   215.19   436.18   491.02   540.42
          (Kelvin)            572.83   659.06   777.77   779.94   914.90
                              974.01  1058.83  1091.35  1093.14  1186.94
                             1328.61  1422.14  1693.91  1752.31  1880.24
                             1976.19  2051.57  2100.21  2214.53  2551.07
                             2664.78  2690.65  4723.41  5187.00  5240.01

 Zero-point correction=                           0.079848 (Hartree/Particle)
 Thermal correction to Energy=                    0.086896
 Thermal correction to Enthalpy=                  0.087840
 Thermal correction to Gibbs Free Energy=         0.048067
 Sum of electronic and zero-point Energies=           -513.786954
 Sum of electronic and thermal Energies=              -513.779906
 Sum of electronic and thermal Enthalpies=            -513.778962
 Sum of electronic and thermal Free Energies=         -513.818736

                     E (Thermal)             CV                S
                      KCal/Mol        Cal/Mol-Kelvin    Cal/Mol-Kelvin
 Total                   54.528             26.216             83.710
 Electronic               0.000              0.000              0.000
 Translational            0.889              2.981             40.501
 Rotational               0.889              2.981             28.679
 Vibrational             52.750             20.255             14.530
 Vibration     1          0.607              1.940              3.252
 Vibration     2          0.618              1.903              2.678
 Vibration     3          0.695              1.668              1.399
 Vibration     4          0.721              1.593              1.206
 Vibration     5          0.746              1.522              1.057
 Vibration     6          0.764              1.474              0.970
 Vibration     7          0.816              1.343              0.772
 Vibration     8          0.896              1.160              0.564
 Vibration     9          0.897              1.157              0.561

 Optimization completed.
    -- Stationary point found.
 Normal termination of Gaussian 09 at Sun Mar 16 20:21:04 2025.
