 Gaussian 09, Revision D.01,
 Gaussian 09:  ES64L-G09RevD.01 24-Apr-2013

 ---------------------------------
 #m062X/6-31+G(d) OPT Freq=noraman
 ---------------------------------

 ---------------------
 chloro(fluoro)methane
 ---------------------
 Symbolic Z-matrix:
 Charge =  0 Multiplicity = 1

 SCF Done:  E(RM062X) =  -599.254202785     A.U. after   11 cycles
 SCF Done:  E(RM062X) =  -599.254414824     A.U. after    9 cycles
 SCF Done:  E(RM062X) =  -599.254436557     A.U. after    9 cycles
 Optimization completed.
    -- Stationary point found.
 Normal termination of Gaussian 09 at Thu Mar 13 14:55:32 2025.

 ---------------------------------------------------------------------
 #N Geom=AllCheck Guess=TCheck SCRF=Check GenChk RM062X/6-31+G(d) Freq
 ---------------------------------------------------------------------

 Structure from the checkpoint file:  "/srv/scratch/z5358697/gauss/Gau-370154.chk"
 ---------------------
 chloro(fluoro)methane
 ---------------------
 Charge =  0 Multiplicity = 1

                         Standard orientation:
 ---------------------------------------------------------------------
 Center     Atomic      Atomic             Coordinates (Angstroms)
 Number     Number       Type             X           Y           Z
 ---------------------------------------------------------------------
      1          6           0       -0.565469    0.576208   -0.000004
      2          9           0       -1.491181   -0.422943    0.000023
      3         17           0        1.069713   -0.116661   -0.000005
      4          1           0       -0.685668    1.166357    0.907238
      5          1           0       -0.686005    1.166126   -0.907339
 ---------------------------------------------------------------------

 SCF Done:  E(RM062X) =  -599.254436557     A.U. after    1 cycles

 The electronic state is 1-A.
 Alpha  occ. eigenvalues -- -102.67583 -25.28614 -10.69977  -9.82386  -7.54787
 Alpha  occ. eigenvalues --   -7.54124  -7.54083  -1.38092  -0.97136  -0.78891
 Alpha  occ. eigenvalues --   -0.62578  -0.61988  -0.58311  -0.47876  -0.45788
 Alpha  occ. eigenvalues --   -0.39551  -0.37983
 Alpha virt. eigenvalues --    0.01716   0.03365   0.04350   0.05177   0.07439
 Alpha virt. eigenvalues --    0.10562   0.10990   0.11773   0.17229   0.19714
 Alpha virt. eigenvalues --    0.22337   0.22741   0.29516   0.31379   0.32579

 Mulliken charges:
               1
     1  C   -0.232981
     2  F   -0.253149
     3  Cl   0.002390
     4  H    0.241875
     5  H    0.241865
 Sum of Mulliken charges =   0.00000

 Dipole moment (field-independent basis, Debye):
    X=             -0.4080    Y=              2.0139    Z=              0.0000  Tot=              2.0548
 Quadrupole moment (field-independent basis, Debye-Ang):
   XX=            -26.3325   YY=            -23.1491   ZZ=            -23.4880
   XY=             -2.1646   XZ=              0.0004   YZ=              0.0002

  Exact polarizability:  31.002  -3.268  21.909   0.001   0.001  20.176
 Approx polarizability:  33.937  -3.661  23.716   0.001   0.000  21.541

                      1                      2                      3
                      A                      A                      A
 Frequencies --    387.1735               786.3447              1020.7011
 Red. masses --     15.4922                 6.4852                 1.3412
 Frc consts  --      1.3683                 2.3626                 0.8233
 IR Inten    --      2.0545               100.9906                 0.6091

                      4                      5                      6
                      A                      A                      A
 Frequencies --   1134.8860              1266.5785              1400.0845
 Red. masses --      8.5976                 1.0772                 1.1482
 Frc consts  --      6.5243                 1.0182                 1.3261
 IR Inten    --    193.5755                 3.5531                54.3928

                      7                      8                      9
                      A                      A                      A
 Frequencies --   1516.5001              3166.9998              3248.6306
 Red. masses --      1.0883                 1.0522                 1.1184
 Frc consts  --      1.4746                 6.2181                 6.9544
 IR Inten    --      0.1776                20.2471                 6.3398

 - Thermochemistry -
 -------------------
 Temperature   298.150 Kelvin.  Pressure   1.00000 Atm.
 Atom     1 has atomic number  6 and mass  12.00000

 Molecular mass:    67.98291 amu.
 Principal axes and moments of inertia in atomic units:
                           1         2         3
     Eigenvalues --    43.14000 316.93668 348.22627
           X            0.99961  -0.02784   0.00000
           Y            0.02784   0.99961   0.00001
           Z            0.00000  -0.00001   1.00000
 This molecule is an asymmetric top.
 Rotational symmetry number  1.
 Rotational temperatures (Kelvin)      2.00774     0.27328     0.24873
 Rotational constants (GHZ):          41.83452     5.69433     5.18267
 Zero-point vibrational energy      83307.3 (Joules/Mol)
                                   19.91093 (Kcal/Mol)
 Warning -- explicit consideration of   1 degrees of freedom as
           vibrations may cause significant error
 Vibrational temperatures:    557.06  1131.37  1468.56  1632.85  1822.32
          (Kelvin)           2014.41  2181.90  4556.60  4674.05

 Zero-point correction=                           0.031730 (Hartree/Particle)
 Thermal correction to Energy=                    0.035048
 Thermal correction to Enthalpy=                  0.035992
 Thermal correction to Gibbs Free Energy=         0.006021
 Sum of electronic and zero-point Energies=           -599.222706
 Sum of electronic and thermal Energies=              -599.219389
 Sum of electronic and thermal Enthalpies=            -599.218445
 Sum of electronic and thermal Free Energies=         -599.248415

                     E (Thermal)             CV                S
                      KCal/Mol        Cal/Mol-Kelvin    Cal/Mol-Kelvin
 Total                   21.993              9.081             63.078
 Electronic               0.000              0.000              0.000
 Translational            0.889              2.981             38.568
 Rotational               0.889              2.981             23.081
 Vibrational             20.215              3.120              1.430
 Vibration     1          0.756              1.498              1.011

 Optimization completed.
    -- Stationary point found.
 Normal termination of Gaussian 09 at Thu Mar 13 14:55:46 2025.
