 Gaussian 09, Revision D.01,
 Gaussian 09:  ES64L-G09RevD.01 24-Apr-2013

 ---------------------------------
 #m062X/6-31+G(d) OPT Freq=noraman
 ---------------------------------

 -------------
 cyclohexanone
 -------------
 Symbolic Z-matrix:
 Charge =  0 Multiplicity = 1

 SCF Done:  E(RM062X) =  -309.751080540     A.U. after   12 cycles
 SCF Done:  E(RM062X) =  -309.752172346     A.U. after   11 cycles
 SCF Done:  E(RM062X) =  -309.752790009     A.U. after   11 cycles
 SCF Done:  E(RM062X) =  -309.753019622     A.U. after   10 cycles
 SCF Done:  E(RM062X) =  -309.753040980     A.U. after   10 cycles
 SCF Done:  E(RM062X) =  -309.753059559     A.U. after   10 cycles
 SCF Done:  E(RM062X) =  -309.753062192     A.U. after    9 cycles
 SCF Done:  E(RM062X) =  -309.753062481     A.U. after    8 cycles
 Optimization completed.
    -- Stationary point found.
 Normal termination of Gaussian 09 at Tue Mar 18 20:08:55 2025.

 ---------------------------------------------------------------------
 #N Geom=AllCheck Guess=TCheck SCRF=Check GenChk RM062X/6-31+G(d) Freq
 ---------------------------------------------------------------------

 Structure from the checkpoint file:  "/srv/scratch/z5358697/gauss/Gau-2728735.chk"
 -------------
 cyclohexanone
 -------------
 Charge =  0 Multiplicity = 1

                         Standard orientation:
 ---------------------------------------------------------------------
 Center     Atomic      Atomic             Coordinates (Angstroms)
 Number     Number       Type             X           Y           Z
 ---------------------------------------------------------------------
      1          6           0       -1.778313    0.000006    0.102019
      2          6           0       -1.003947    1.259932   -0.289405
      3          6           0        0.389314    1.282461    0.360909
      4          6           0        1.148615   -0.000002    0.072998
      5          8           0        2.280168   -0.000003   -0.362618
      6          6           0        0.389309   -1.282465    0.360900
      7          6           0       -1.003959   -1.259930   -0.289395
      8          1           0       -2.764078    0.000008   -0.376560
      9          1           0       -1.951645    0.000013    1.188061
     10          1           0       -0.891883    1.291572   -1.381579
     11          1           0       -1.557720    2.160248   -0.002283
     12          1           0        0.992003    2.129277    0.022520
     13          1           0        0.271751    1.361441    1.451987
     14          1           0        0.991993   -2.129277    0.022494
     15          1           0        0.271765   -1.361457    1.451980
     16          1           0       -0.891910   -1.291587   -1.381571
     17          1           0       -1.557736   -2.160238   -0.002254
 ---------------------------------------------------------------------

 SCF Done:  E(RM062X) =  -309.753062481     A.U. after    1 cycles

 The electronic state is 1-A.
 Alpha  occ. eigenvalues --  -19.63927 -10.63856 -10.55935 -10.55934 -10.55591
 Alpha  occ. eigenvalues --  -10.55585 -10.55582  -1.16712  -0.94208  -0.85817
 Alpha  occ. eigenvalues --   -0.82665  -0.71902  -0.68085  -0.61642  -0.55843
 Alpha  occ. eigenvalues --   -0.53918  -0.52781  -0.51401  -0.49215  -0.47796
 Alpha  occ. eigenvalues --   -0.46082  -0.43075  -0.42397  -0.39707  -0.39441
 Alpha  occ. eigenvalues --   -0.38853  -0.31198
 Alpha virt. eigenvalues --    0.00655   0.02727   0.02792   0.03341   0.04100
 Alpha virt. eigenvalues --    0.05338   0.05372   0.07392   0.07889   0.07951
 Alpha virt. eigenvalues --    0.10146   0.10650   0.10829   0.11005   0.11396

 Mulliken charges:
               1
     1  C   -0.458832
     2  C   -0.425992
     3  C   -0.475787
     4  C    0.407312
     5  O   -0.422311
     6  C   -0.475790
     7  C   -0.425991
     8  H    0.217557
     9  H    0.215109
    10  H    0.225330
    11  H    0.219482
    12  H    0.242817
    13  H    0.234733
    14  H    0.242817
    15  H    0.234734
    16  H    0.225330
    17  H    0.219482
 Sum of Mulliken charges =   0.00000

 Dipole moment (field-independent basis, Debye):
    X=             -3.2783    Y=              0.0000    Z=              1.0101  Tot=              3.4304
 Quadrupole moment (field-independent basis, Debye-Ang):
   XX=            -52.7121   YY=            -41.8646   ZZ=            -42.9525
   XY=              0.0000   XZ=              2.2445   YZ=              0.0000

  Exact polarizability:  76.041   0.000  68.779  -2.493   0.000  58.649
 Approx polarizability:  85.341   0.000  74.254  -5.246   0.000  73.912

                      1                      2                      3
                      A                      A                      A
 Frequencies --     93.2962               185.7438               313.2065
 Red. masses --      3.8681                 1.9663                 1.8886
 Frc consts  --      0.0198                 0.0400                 0.1092
 IR Inten    --      4.0275                 0.8561                 0.3090

                      4                      5                      6
                      A                      A                      A
 Frequencies --    406.8458               411.1894               482.9137
 Red. masses --      2.4682                 3.2961                 1.5977
 Frc consts  --      0.2407                 0.3283                 0.2195
 IR Inten    --      1.2592                 2.3226                 0.3237

                      7                      8                      9
                      A                      A                      A
 Frequencies --    497.1367               668.4987               770.3939
 Red. masses --      3.6723                 2.9344                 2.9126
 Frc consts  --      0.5347                 0.7726                 1.0185
 IR Inten    --     10.6331                 1.5363                 2.7292

                     10                     11                     12
                      A                      A                      A
 Frequencies --    771.4041               859.0251               881.9474
 Red. masses --      1.5036                 2.3013                 1.4831
 Frc consts  --      0.5272                 1.0005                 0.6797
 IR Inten    --      3.2161                 0.5763                 3.3289

                     13                     14                     15
                      A                      A                      A
 Frequencies --    916.4959               930.4546              1011.9085
 Red. masses --      1.5904                 1.8383                 2.7457
 Frc consts  --      0.7871                 0.9377                 1.6565
 IR Inten    --      0.0965                 6.6601                 1.0367

                     16                     17                     18
                      A                      A                      A
 Frequencies --   1045.0275              1071.3498              1099.5404
 Red. masses --      1.7485                 1.0945                 1.4361
 Frc consts  --      1.1250                 0.7401                 1.0230
 IR Inten    --      2.5684                 4.5682                 1.0543

                     19                     20                     21
                      A                      A                      A
 Frequencies --   1147.1513              1161.6602              1253.8314
 Red. masses --      2.1550                 1.7819                 1.6990
 Frc consts  --      1.6708                 1.4168                 1.5737
 IR Inten    --      0.4070                15.1739                23.3092

                     22                     23                     24
                      A                      A                      A
 Frequencies --   1258.4228              1287.5403              1299.0447
 Red. masses --      1.3159                 1.3256                 1.2740
 Frc consts  --      1.2278                 1.2947                 1.2667
 IR Inten    --      0.6808                 0.2066                 1.5138

                     25                     26                     27
                      A                      A                      A
 Frequencies --   1360.0127              1363.1096              1378.7374
 Red. masses --      1.5498                 1.4209                 1.5421
 Frc consts  --      1.6889                 1.5556                 1.7271
 IR Inten    --     11.2363                 3.7262                11.7817

                     28                     29                     30
                      A                      A                      A
 Frequencies --   1392.7023              1399.4850              1482.2710
 Red. masses --      1.5226                 1.6896                 1.1015
 Frc consts  --      1.7400                 1.9497                 1.4260
 IR Inten    --      3.3777                 2.5863                 9.4334

                     31                     32                     33
                      A                      A                      A
 Frequencies --   1491.3123              1510.4734              1512.3541
 Red. masses --      1.0897                 1.0828                 1.0947
 Frc consts  --      1.4279                 1.4556                 1.4752
 IR Inten    --      9.7974                11.2925                 7.4232

                     34                     35                     36
                      A                      A                      A
 Frequencies --   1529.0067              1857.6468              3050.6389
 Red. masses --      1.0974                11.3012                 1.0684
 Frc consts  --      1.5116                22.9774                 5.8584
 IR Inten    --      2.0890               244.5452                20.0678

                     37                     38                     39
                      A                      A                      A
 Frequencies --   3058.1302              3063.1951              3069.8965
 Red. masses --      1.0683                 1.0683                 1.0635
 Frc consts  --      5.8865                 5.9057                 5.9050
 IR Inten    --      4.1497                 2.9427                14.7945

                     40                     41                     42
                      A                      A                      A
 Frequencies --   3071.8562              3113.1120              3121.3151
 Red. masses --      1.0624                 1.0958                 1.1002
 Frc consts  --      5.9067                 6.2570                 6.3154
 IR Inten    --     52.4860                43.1838                34.0784

                     43                     44                     45
                      A                      A                      A
 Frequencies --   3123.8249              3152.1545              3153.4713
 Red. masses --      1.1018                 1.0963                 1.0971
 Frc consts  --      6.3345                 6.4178                 6.4283
 IR Inten    --     36.6026                15.4439                11.5972

 - Thermochemistry -
 -------------------
 Temperature   298.150 Kelvin.  Pressure   1.00000 Atm.
 Atom     1 has atomic number  6 and mass  12.00000

 Molecular mass:    98.07317 amu.
 Principal axes and moments of inertia in atomic units:
                           1         2         3
     Eigenvalues --   429.50628 719.616021027.28305
           X            0.99993   0.00000   0.01157
           Y            0.00000   1.00000   0.00000
           Z           -0.01157   0.00000   0.99993
 This molecule is an asymmetric top.
 Rotational symmetry number  1.
 Rotational temperatures (Kelvin)      0.20166     0.12036     0.08431
 Rotational constants (GHZ):           4.20190     2.50792     1.75681
 Zero-point vibrational energy     401219.9 (Joules/Mol)
                                   95.89387 (Kcal/Mol)
 Warning -- explicit consideration of   7 degrees of freedom as
           vibrations may cause significant error
 Vibrational temperatures:    134.23   267.24   450.63   585.36   591.61
          (Kelvin)            694.80   715.27   961.82  1108.42  1109.88
                             1235.94  1268.92  1318.63  1338.71  1455.91
                             1503.56  1541.43  1581.99  1650.49  1671.37
                             1803.98  1810.59  1852.48  1869.03  1956.75
                             1961.21  1983.69  2003.79  2013.54  2132.65
                             2145.66  2173.23  2175.94  2199.90  2672.74
                             4389.18  4399.96  4407.25  4416.89  4419.71
                             4479.07  4490.87  4494.48  4535.24  4537.14

 Zero-point correction=                           0.152817 (Hartree/Particle)
 Thermal correction to Energy=                    0.159244
 Thermal correction to Enthalpy=                  0.160188
 Thermal correction to Gibbs Free Energy=         0.122460
 Sum of electronic and zero-point Energies=           -309.600246
 Sum of electronic and thermal Energies=              -309.593819
 Sum of electronic and thermal Enthalpies=            -309.592875
 Sum of electronic and thermal Free Energies=         -309.630603

                     E (Thermal)             CV                S
                      KCal/Mol        Cal/Mol-Kelvin    Cal/Mol-Kelvin
 Total                   99.927             24.539             79.406
 Electronic               0.000              0.000              0.000
 Translational            0.889              2.981             39.660
 Rotational               0.889              2.981             27.254
 Vibrational             98.149             18.577             12.492
 Vibration     1          0.602              1.954              3.590
 Vibration     2          0.632              1.859              2.270
 Vibration     3          0.701              1.648              1.345
 Vibration     4          0.772              1.455              0.938
 Vibration     5          0.775              1.446              0.922
 Vibration     6          0.839              1.288              0.702
 Vibration     7          0.853              1.256              0.665

 Optimization completed.
    -- Stationary point found.
 Normal termination of Gaussian 09 at Tue Mar 18 20:14:49 2025.
