 Gaussian 09, Revision D.01,
 Gaussian 09:  ES64L-G09RevD.01 24-Apr-2013

 ---------------------------------
 #m062X/6-31+G(d) OPT Freq=noraman
 ---------------------------------

 ---------------
 dichloromethane
 ---------------
 Symbolic Z-matrix:
 Charge =  0 Multiplicity = 1

 SCF Done:  E(RM062X) =  -959.609152865     A.U. after   10 cycles
 SCF Done:  E(RM062X) =  -959.609454756     A.U. after    9 cycles
 SCF Done:  E(RM062X) =  -959.609465352     A.U. after    8 cycles
 Optimization completed.
    -- Stationary point found.
 Normal termination of Gaussian 09 at Thu Mar 13 14:56:04 2025.

 ---------------------------------------------------------------------
 #N Geom=AllCheck Guess=TCheck SCRF=Check GenChk RM062X/6-31+G(d) Freq
 ---------------------------------------------------------------------

 Structure from the checkpoint file:  "/srv/scratch/z5358697/gauss/Gau-1774447.chk"
 ---------------
 dichloromethane
 ---------------
 Charge =  0 Multiplicity = 1

                         Standard orientation:
 ---------------------------------------------------------------------
 Center     Atomic      Atomic             Coordinates (Angstroms)
 Number     Number       Type             X           Y           Z
 ---------------------------------------------------------------------
      1          6           0        0.000004    0.763759    0.000002
      2         17           0        1.478610   -0.215793    0.000002
      3         17           0       -1.478611   -0.215792    0.000002
      4          1           0        0.000001    1.377136   -0.897125
      5          1           0        0.000001    1.377253    0.897053
 ---------------------------------------------------------------------

 SCF Done:  E(RM062X) =  -959.609465352     A.U. after    1 cycles

 The electronic state is 1-A.
 Alpha  occ. eigenvalues -- -102.68119-102.68119 -10.67736  -9.82865  -9.82864
 Alpha  occ. eigenvalues --   -7.55292  -7.55291  -7.54583  -7.54583  -7.54553
 Alpha  occ. eigenvalues --   -7.54553  -1.01426  -0.92986  -0.76022  -0.57822
 Alpha  occ. eigenvalues --   -0.53532  -0.51362  -0.39816  -0.39795  -0.37853
 Alpha  occ. eigenvalues --   -0.37396
 Alpha virt. eigenvalues --    0.00933   0.02849   0.03292   0.05704   0.06788
 Alpha virt. eigenvalues --    0.08591   0.09227   0.10355   0.10809   0.10910
 Alpha virt. eigenvalues --    0.12051   0.14633   0.15660   0.19060   0.21248

 Mulliken charges:
               1
     1  C   -0.645586
     2  Cl   0.033723
     3  Cl   0.033718
     4  H    0.289074
     5  H    0.289071
 Sum of Mulliken charges =   0.00000

 Dipole moment (field-independent basis, Debye):
    X=              0.0000    Y=              1.8987    Z=              0.0000  Tot=              1.8987
 Quadrupole moment (field-independent basis, Debye-Ang):
   XX=            -34.5029   YY=            -29.9607   ZZ=            -31.6366
   XY=              0.0000   XZ=              0.0000   YZ=              0.0001

  Exact polarizability:  46.515   0.000  30.622   0.000   0.000  26.154
 Approx polarizability:  49.527   0.000  34.814   0.000   0.000  28.793

                      1                      2                      3
                      A                      A                      A
 Frequencies --    285.3654               724.7898               776.6090
 Red. masses --     18.7380                 7.5499                 8.1983
 Frc consts  --      0.8990                 2.3368                 2.9132
 IR Inten    --      0.6442                14.1661               152.1551

                      4                      5                      6
                      A                      A                      A
 Frequencies --    922.3272              1216.5825              1342.1839
 Red. masses --      1.3603                 1.0182                 1.1151
 Frc consts  --      0.6818                 0.8879                 1.1835
 IR Inten    --      1.5383                 0.0000                60.8525

                      7                      8                      9
                      A                      A                      A
 Frequencies --   1492.9603              3183.5220              3259.2782
 Red. masses --      1.0740                 1.0542                 1.1157
 Frc consts  --      1.4105                 6.2951                 6.9831
 IR Inten    --      0.0055                 5.6587                 0.0762

 - Thermochemistry -
 -------------------
 Temperature   298.150 Kelvin.  Pressure   1.00000 Atm.
 Atom     1 has atomic number  6 and mass  12.00000

 Molecular mass:    83.95336 amu.
 Principal axes and moments of inertia in atomic units:
                           1         2         3
     Eigenvalues --    55.64986 551.82293 595.88732
           X            1.00000   0.00000   0.00000
           Y            0.00000   1.00000   0.00000
           Z            0.00000   0.00000   1.00000
 This molecule is an asymmetric top.
 Rotational symmetry number  1.
 Rotational temperatures (Kelvin)      1.55641     0.15696     0.14535
 Rotational constants (GHZ):          32.43029     3.27051     3.02866
 Zero-point vibrational energy      78975.2 (Joules/Mol)
                                   18.87552 (Kcal/Mol)
 Warning -- explicit consideration of   1 degrees of freedom as
           vibrations may cause significant error
 Vibrational temperatures:    410.58  1042.81  1117.37  1327.02  1750.39
          (Kelvin)           1931.10  2148.03  4580.37  4689.37

 Zero-point correction=                           0.030080 (Hartree/Particle)
 Thermal correction to Energy=                    0.033620
 Thermal correction to Enthalpy=                  0.034564
 Thermal correction to Gibbs Free Energy=         0.003289
 Sum of electronic and zero-point Energies=           -959.579385
 Sum of electronic and thermal Energies=              -959.575846
 Sum of electronic and thermal Enthalpies=            -959.574901
 Sum of electronic and thermal Free Energies=         -959.606176

                     E (Thermal)             CV                S
                      KCal/Mol        Cal/Mol-Kelvin    Cal/Mol-Kelvin
 Total                   21.097             10.005             65.823
 Electronic               0.000              0.000              0.000
 Translational            0.889              2.981             39.197
 Rotational               0.889              2.981             24.418
 Vibrational             19.319              4.044              2.208
 Vibration     1          0.683              1.701              1.501

 Optimization completed.
    -- Stationary point found.
 Normal termination of Gaussian 09 at Thu Mar 13 14:56:20 2025.
