 Gaussian 09, Revision D.01,
 Gaussian 09:  ES64L-G09RevD.01 24-Apr-2013

 ---------------------------------
 #m062X/6-31+G(d) OPT Freq=noraman
 ---------------------------------

 -------------------------------
 5-bromo-1H-pyrimidine-2,4-dione
 -------------------------------
 Symbolic Z-matrix:
 Charge =  0 Multiplicity = 1

 SCF Done:  E(RM062X) =  -2985.86253261     A.U. after   14 cycles
 SCF Done:  E(RM062X) =  -2985.86545230     A.U. after   14 cycles
 SCF Done:  E(RM062X) =  -2985.86562153     A.U. after   11 cycles
 SCF Done:  E(RM062X) =  -2985.86564946     A.U. after   11 cycles
 SCF Done:  E(RM062X) =  -2985.86565113     A.U. after    9 cycles
 SCF Done:  E(RM062X) =  -2985.86565156     A.U. after    9 cycles
 Optimization completed.
    -- Stationary point found.
 Normal termination of Gaussian 09 at Sun Mar 16 20:48:37 2025.

 ---------------------------------------------------------------------
 #N Geom=AllCheck Guess=TCheck SCRF=Check GenChk RM062X/6-31+G(d) Freq
 ---------------------------------------------------------------------

 Structure from the checkpoint file:  "/srv/scratch/z5358697/gauss/Gau-1924752.chk"
 -------------------------------
 5-bromo-1H-pyrimidine-2,4-dione
 -------------------------------
 Charge =  0 Multiplicity = 1

                         Standard orientation:
 ---------------------------------------------------------------------
 Center     Atomic      Atomic             Coordinates (Angstroms)
 Number     Number       Type             X           Y           Z
 ---------------------------------------------------------------------
      1          6           0        0.406678   -1.340450    0.000044
      2          6           0       -0.314771   -0.204136    0.000062
      3          6           0        0.370750    1.096853    0.000649
      4          8           0       -0.160858    2.183493   -0.000274
      5          7           0        1.767649    0.980315    0.000125
      6          6           0        2.538251   -0.166515   -0.000160
      7          8           0        3.749627   -0.169650   -0.000149
      8          7           0        1.779420   -1.327098    0.000058
      9         35           0       -2.173714   -0.209790   -0.000039
     10          1           0       -0.058912   -2.319787   -0.000046
     11          1           0        2.285339    1.854145   -0.000063
     12          1           0        2.308481   -2.189500    0.000008
 ---------------------------------------------------------------------

 SCF Done:  E(RM062X) =  -2985.86565156     A.U. after    1 cycles

 The electronic state is 1-A.
 Alpha  occ. eigenvalues -- -485.50359 -62.78397 -57.31547 -57.31235 -57.31209
 Alpha  occ. eigenvalues --  -19.65076 -19.65040 -14.85695 -14.83954 -10.73033
 Alpha  occ. eigenvalues --  -10.70133 -10.65845 -10.63591  -8.95466  -6.90923
 Alpha  occ. eigenvalues --   -6.89797  -6.89780  -2.93778  -2.93375  -2.93362
 Alpha  occ. eigenvalues --   -2.92358  -2.92357  -1.22780  -1.19839  -1.11879
 Alpha  occ. eigenvalues --   -1.06032  -0.96089  -0.86073  -0.79841  -0.77625
 Alpha  occ. eigenvalues --   -0.67655  -0.66845  -0.61773  -0.58718  -0.57485
 Alpha  occ. eigenvalues --   -0.54297  -0.52326  -0.50923  -0.49294  -0.46883
 Alpha  occ. eigenvalues --   -0.39650  -0.39641  -0.37139  -0.36743  -0.36617
 Alpha  occ. eigenvalues --   -0.30600
 Alpha virt. eigenvalues --   -0.03293  -0.01509   0.00992   0.01438   0.02352
 Alpha virt. eigenvalues --    0.02620   0.03229   0.04531   0.05127   0.06376
 Alpha virt. eigenvalues --    0.06429   0.07583   0.08161   0.08502   0.10160

 Mulliken charges:
               1
     1  C   -0.463386
     2  C    0.559079
     3  C    0.200501
     4  O   -0.436946
     5  N   -0.756009
     6  C    0.732502
     7  O   -0.508621
     8  N   -0.639796
     9  Br   0.104180
    10  H    0.257259
    11  H    0.477678
    12  H    0.473560
 Sum of Mulliken charges =   0.00000

 Dipole moment (field-independent basis, Debye):
    X=              0.0884    Y=             -4.1020    Z=              0.0011  Tot=              4.1029
 Quadrupole moment (field-independent basis, Debye-Ang):
   XX=            -75.4472   YY=            -59.2155   ZZ=            -64.4488
   XY=              1.1182   XZ=              0.0004   YZ=              0.0022

  Exact polarizability: 118.389  -9.987  84.018   0.000  -0.002  46.361
 Approx polarizability: 136.679 -19.164 111.423   0.004  -0.007  61.447

                      1                      2                      3
                      A                      A                      A
 Frequencies --     96.2517               157.8359               190.4721
 Red. masses --     10.5944                 8.6287                13.1330
 Frc consts  --      0.0578                 0.1267                 0.2807
 IR Inten    --      1.2402                 0.8116                 1.0563

                      4                      5                      6
                      A                      A                      A
 Frequencies --    294.6606               334.1685               404.2078
 Red. masses --     18.0843                 6.3116                12.0799
 Frc consts  --      0.9251                 0.4153                 1.1629
 IR Inten    --      2.2056                 3.3503                23.4764

                      7                      8                      9
                      A                      A                      A
 Frequencies --    429.3584               543.9356               571.5426
 Red. masses --      3.0932                 8.4064                 1.1371
 Frc consts  --      0.3360                 1.4654                 0.2189
 IR Inten    --     27.5236                 8.3941                56.2378

                     10                     11                     12
                      A                      A                      A
 Frequencies --    607.4195               641.3752               684.5893
 Red. masses --      6.4585                 7.2163                 1.1832
 Frc consts  --      1.4040                 1.7490                 0.3267
 IR Inten    --      0.9862                39.5043                93.0798

                     13                     14                     15
                      A                      A                      A
 Frequencies --    759.0955               790.6619               807.3251
 Red. masses --      9.5980                 9.0397                 8.3838
 Frc consts  --      3.2586                 3.3296                 3.2195
 IR Inten    --     61.4285                 3.5873                10.0493

                     16                     17                     18
                      A                      A                      A
 Frequencies --    941.7514               995.4523              1082.2971
 Red. masses --      1.4612                 3.0325                 5.6699
 Frc consts  --      0.7635                 1.7705                 3.9131
 IR Inten    --     12.5153                11.3109                62.7384

                     19                     20                     21
                      A                      A                      A
 Frequencies --   1195.2255              1232.1615              1376.3721
 Red. masses --      2.4414                 2.1173                 1.9127
 Frc consts  --      2.0549                 1.8939                 2.1348
 IR Inten    --     68.5759                69.0297                 8.0533

                     22                     23                     24
                      A                      A                      A
 Frequencies --   1423.5448              1444.8259              1522.4302
 Red. masses --      1.6974                 3.4374                 3.1573
 Frc consts  --      2.0266                 4.2277                 4.3116
 IR Inten    --     14.3839               109.0736               129.6251

                     25                     26                     27
                      A                      A                      A
 Frequencies --   1719.6576              1841.3413              1867.0921
 Red. masses --      6.4772                 9.4676                 9.2073
 Frc consts  --     11.2855                18.9129                18.9109
 IR Inten    --    102.4305               738.3519               786.4345

                     28                     29                     30
                      A                      A                      A
 Frequencies --   3250.4565              3602.7981              3656.4576
 Red. masses --      1.0954                 1.0780                 1.0793
 Frc consts  --      6.8186                 8.2441                 8.5019
 IR Inten    --      1.6847                94.8900               141.6485

 - Thermochemistry -
 -------------------
 Temperature   298.150 Kelvin.  Pressure   1.00000 Atm.
 Atom     1 has atomic number  6 and mass  12.00000

 Molecular mass:   189.93779 amu.
 Principal axes and moments of inertia in atomic units:
                           1         2         3
     Eigenvalues --   602.869302771.461823374.33106
           X            0.99997  -0.00797   0.00000
           Y            0.00797   0.99997   0.00000
           Z            0.00000   0.00000   1.00000
 This molecule is an asymmetric top.
 Rotational symmetry number  1.
 Warning -- assumption of classical behavior for rotation
           may cause significant error
 Rotational temperatures (Kelvin)      0.14367     0.03125     0.02567
 Rotational constants (GHZ):           2.99359     0.65119     0.53484
 Zero-point vibrational energy     206145.1 (Joules/Mol)
                                   49.26985 (Kcal/Mol)
 Warning -- explicit consideration of  10 degrees of freedom as
           vibrations may cause significant error
 Vibrational temperatures:    138.48   227.09   274.05   423.95   480.79
          (Kelvin)            581.56   617.75   782.60   822.32   873.94
                              922.79   984.97  1092.17  1137.58  1161.56
                             1354.97  1432.23  1557.18  1719.66  1772.80
                             1980.29  2048.16  2078.78  2190.43  2474.20
                             2649.28  2686.33  4676.68  5183.62  5260.82

 Zero-point correction=                           0.078517 (Hartree/Particle)
 Thermal correction to Energy=                    0.085893
 Thermal correction to Enthalpy=                  0.086838
 Thermal correction to Gibbs Free Energy=         0.045093
 Sum of electronic and zero-point Energies=          -2985.787135
 Sum of electronic and thermal Energies=             -2985.779758
 Sum of electronic and thermal Enthalpies=           -2985.778814
 Sum of electronic and thermal Free Energies=        -2985.820558

                     E (Thermal)             CV                S
                      KCal/Mol        Cal/Mol-Kelvin    Cal/Mol-Kelvin
 Total                   53.899             26.874             87.859
 Electronic               0.000              0.000              0.000
 Translational            0.889              2.981             41.630
 Rotational               0.889              2.981             30.112
 Vibrational             52.122             20.913             16.116
 Vibration     1          0.603              1.952              3.529
 Vibration     2          0.621              1.894              2.576
 Vibration     3          0.634              1.853              2.223
 Vibration     4          0.689              1.684              1.447
 Vibration     5          0.716              1.607              1.240
 Vibration     6          0.769              1.461              0.947
 Vibration     7          0.791              1.406              0.861
 Vibration     8          0.899              1.153              0.557
 Vibration     9          0.928              1.093              0.501
 Vibration    10          0.966              1.016              0.437

 Optimization completed.
    -- Stationary point found.
 Normal termination of Gaussian 09 at Sun Mar 16 20:53:53 2025.
