 Gaussian 09, Revision D.01,
 Gaussian 09:  ES64L-G09RevD.01 24-Apr-2013

 ---------------------------------
 #m062X/6-31+G(d) OPT Freq=noraman
 ---------------------------------

 --------------------------
 1,2,3,4-tetrachlorobenzene
 --------------------------
 Symbolic Z-matrix:
 Charge =  0 Multiplicity = 1

 SCF Done:  E(RM062X) =  -2070.40781640     A.U. after   14 cycles
 SCF Done:  E(RM062X) =  -2070.40871745     A.U. after   12 cycles
 SCF Done:  E(RM062X) =  -2070.40878935     A.U. after   12 cycles
 SCF Done:  E(RM062X) =  -2070.40879379     A.U. after   10 cycles
 SCF Done:  E(RM062X) =  -2070.40879468     A.U. after    9 cycles
 Optimization completed.
    -- Stationary point found.
 Normal termination of Gaussian 09 at Sun Mar 16 21:00:17 2025.

 ---------------------------------------------------------------------
 #N Geom=AllCheck Guess=TCheck SCRF=Check GenChk RM062X/6-31+G(d) Freq
 ---------------------------------------------------------------------

 Structure from the checkpoint file:  "/srv/scratch/z5358697/gauss/Gau-2427618.chk"
 --------------------------
 1,2,3,4-tetrachlorobenzene
 --------------------------
 Charge =  0 Multiplicity = 1

                         Standard orientation:
 ---------------------------------------------------------------------
 Center     Atomic      Atomic             Coordinates (Angstroms)
 Number     Number       Type             X           Y           Z
 ---------------------------------------------------------------------
      1          6           0        0.693283   -2.019749    0.000003
      2          6           0       -0.693278   -2.019751    0.000004
      3          6           0       -1.390843   -0.816039   -0.000003
      4          6           0       -0.702091    0.401236    0.000008
      5          6           0        0.702090    0.401240    0.000019
      6          6           0        1.390845   -0.816034    0.000009
      7         17           0        3.121547   -0.858230   -0.000007
      8         17           0        1.568686    1.891166    0.000000
      9         17           0       -1.568691    1.891163   -0.000003
     10         17           0       -3.121544   -0.858233   -0.000003
     11          1           0        1.246398   -2.952572   -0.000005
     12          1           0       -1.246392   -2.952575   -0.000002
 ---------------------------------------------------------------------

 SCF Done:  E(RM062X) =  -2070.40879468     A.U. after    1 cycles

 The electronic state is 1-A.
 Alpha  occ. eigenvalues -- -102.69691-102.69691-102.69475-102.69475 -10.65938
 Alpha  occ. eigenvalues --  -10.65867 -10.65261 -10.65260 -10.60037 -10.59957
 Alpha  occ. eigenvalues --   -9.84315  -9.84314  -9.84117  -9.84117  -7.56750
 Alpha  occ. eigenvalues --   -7.56748  -7.56543  -7.56543  -7.56048  -7.56048
 Alpha  occ. eigenvalues --   -7.56002  -7.56001  -7.55849  -7.55849  -7.55820
 Alpha  occ. eigenvalues --   -7.55819  -1.06535  -1.01590  -0.99337  -0.96315
 Alpha  occ. eigenvalues --   -0.94116  -0.85708  -0.83489  -0.72720  -0.70728
 Alpha  occ. eigenvalues --   -0.61146  -0.60680  -0.56078  -0.53369  -0.53262
 Alpha  occ. eigenvalues --   -0.52765  -0.48025  -0.47722  -0.46829  -0.44470
 Alpha  occ. eigenvalues --   -0.41668  -0.41596  -0.41098  -0.39569  -0.39549
 Alpha  occ. eigenvalues --   -0.37808  -0.32539  -0.31350
 Alpha virt. eigenvalues --   -0.02101  -0.02000  -0.00597   0.01044   0.02087
 Alpha virt. eigenvalues --    0.03214   0.04070   0.04108   0.05431   0.05817
 Alpha virt. eigenvalues --    0.06914   0.07702   0.08004   0.08044   0.08632

 Mulliken charges:
               1
     1  C   -0.371641
     2  C   -0.371640
     3  C   -0.349739
     4  C   -0.031770
     5  C   -0.031768
     6  C   -0.349741
     7  Cl   0.239955
     8  Cl   0.267652
     9  Cl   0.267649
    10  Cl   0.239957
    11  H    0.245544
    12  H    0.245543
 Sum of Mulliken charges =   0.00000

 Dipole moment (field-independent basis, Debye):
    X=              0.0000    Y=             -2.0730    Z=              0.0000  Tot=              2.0730
 Quadrupole moment (field-independent basis, Debye-Ang):
   XX=            -87.3563   YY=            -77.7166   ZZ=            -86.4205
   XY=              0.0000   XZ=              0.0000   YZ=              0.0000

  Exact polarizability: 154.222   0.000 127.164   0.000   0.000  61.023
 Approx polarizability: 182.313   0.000 162.889   0.000   0.000  79.430

                      1                      2                      3
                      A                      A                      A
 Frequencies --     72.5773                96.2767               215.5412
 Red. masses --     32.3877                11.1549                24.3130
 Frc consts  --      0.1005                 0.0609                 0.6655
 IR Inten    --      0.0000                 0.4678                 0.0137

                      4                      5                      6
                      A                      A                      A
 Frequencies --    216.0540               230.6243               233.0767
 Red. masses --     30.9245                34.3237                 6.6043
 Frc consts  --      0.8505                 1.0756                 0.2114
 IR Inten    --      0.0819                 0.0121                 1.8805

                      7                      8                      9
                      A                      A                      A
 Frequencies --    307.5004               338.1614               357.8448
 Red. masses --      7.3161                26.7025                26.2511
 Frc consts  --      0.4076                 1.7991                 1.9806
 IR Inten    --      0.0000                 0.0509                 0.1121

                     10                     11                     12
                      A                      A                      A
 Frequencies --    487.4388               518.4006               518.9619
 Red. masses --      5.8664                12.3139                 4.6448
 Frc consts  --      0.8212                 1.9497                 0.7370
 IR Inten    --      3.7441                 7.6493                 0.0000

                     13                     14                     15
                      A                      A                      A
 Frequencies --    571.4727               616.0104               702.7990
 Red. masses --      5.7413                11.2040                 8.5091
 Frc consts  --      1.1047                 2.5050                 2.4763
 IR Inten    --      4.5333                21.4362                 0.0000

                     16                     17                     18
                      A                      A                      A
 Frequencies --    787.1021               835.6418               851.5712
 Red. masses --      9.3683                 1.3433                 8.8427
 Frc consts  --      3.4196                 0.5527                 3.7781
 IR Inten    --     48.2811                34.2213                37.9408

                     19                     20                     21
                      A                      A                      A
 Frequencies --    976.7886              1081.3742              1175.2772
 Red. masses --      1.3105                10.4614                 1.5728
 Frc consts  --      0.7367                 7.2076                 1.2800
 IR Inten    --      0.0000                14.6650                 0.3468

                     22                     23                     24
                      A                      A                      A
 Frequencies --   1211.7661              1216.3617              1300.8263
 Red. masses --      3.4797                 1.7312                11.7121
 Frc consts  --      3.0104                 1.5091                11.6768
 IR Inten    --     15.3504                54.2014                 0.0002

                     25                     26                     27
                      A                      A                      A
 Frequencies --   1419.7659              1482.9638              1640.9484
 Red. masses --      5.4121                 2.9010                 8.4036
 Frc consts  --      6.4276                 3.7589                13.3323
 IR Inten    --     67.8121               137.7468                 2.0587

                     28                     29                     30
                      A                      A                      A
 Frequencies --   1651.5889              3238.6202              3250.4423
 Red. masses --      7.3523                 1.0897                 1.0972
 Frc consts  --     11.8162                 6.7340                 6.8300
 IR Inten    --      7.0481                 0.0342                 0.4949

 - Thermochemistry -
 -------------------
 Temperature   298.150 Kelvin.  Pressure   1.00000 Atm.
 Atom     1 has atomic number  6 and mass  12.00000

 Molecular mass:   213.89106 amu.
 Principal axes and moments of inertia in atomic units:
                           1         2         3
     Eigenvalues --  1559.412363308.597424868.00978
           X            1.00000   0.00000   0.00000
           Y            0.00000   1.00000   0.00000
           Z            0.00000   0.00000   1.00000
 This molecule is an asymmetric top.
 Rotational symmetry number  1.
 Warning -- assumption of classical behavior for rotation
           may cause significant error
 Rotational temperatures (Kelvin)      0.05554     0.02618     0.01779
 Rotational constants (GHZ):           1.15732     0.54547     0.37073
 Zero-point vibrational energy     165107.3 (Joules/Mol)
                                   39.46158 (Kcal/Mol)
 Warning -- explicit consideration of  14 degrees of freedom as
           vibrations may cause significant error
 Vibrational temperatures:    104.42   138.52   310.12   310.85   331.82
          (Kelvin)            335.34   442.42   486.54   514.86   701.31
                              745.86   746.67   822.22   886.30  1011.17
                             1132.46  1202.30  1225.22  1405.38  1555.85
                             1690.96  1743.46  1750.07  1871.60  2042.72
                             2133.65  2360.96  2376.27  4659.65  4676.66

 Zero-point correction=                           0.062886 (Hartree/Particle)
 Thermal correction to Energy=                    0.071940
 Thermal correction to Enthalpy=                  0.072885
 Thermal correction to Gibbs Free Energy=         0.026934
 Sum of electronic and zero-point Energies=          -2070.345909
 Sum of electronic and thermal Energies=             -2070.336854
 Sum of electronic and thermal Enthalpies=           -2070.335910
 Sum of electronic and thermal Free Energies=        -2070.381860

                     E (Thermal)             CV                S
                      KCal/Mol        Cal/Mol-Kelvin    Cal/Mol-Kelvin
 Total                   45.143             32.090             96.711
 Electronic               0.000              0.000              0.000
 Translational            0.889              2.981             41.984
 Rotational               0.889              2.981             31.597
 Vibrational             43.366             26.129             23.130
 Vibration     1          0.599              1.967              4.082
 Vibration     2          0.603              1.952              3.528
 Vibration     3          0.645              1.817              1.996
 Vibration     4          0.645              1.817              1.992
 Vibration     5          0.652              1.794              1.874
 Vibration     6          0.654              1.790              1.855
 Vibration     7          0.697              1.659              1.376
 Vibration     8          0.718              1.599              1.221
 Vibration     9          0.733              1.559              1.131
 Vibration    10          0.843              1.278              0.690
 Vibration    11          0.873              1.209              0.614
 Vibration    12          0.874              1.208              0.612
 Vibration    13          0.928              1.093              0.501
 Vibration    14          0.976              0.998              0.423

 Optimization completed.
    -- Stationary point found.
 Normal termination of Gaussian 09 at Sun Mar 16 21:07:39 2025.
