 Gaussian 09, Revision D.01,
 Gaussian 09:  ES64L-G09RevD.01 24-Apr-2013

 ---------------------------------
 #m062X/6-31+G(d) OPT Freq=noraman
 ---------------------------------

 ------------------------
 (Z)-1,2-dichloroethylene
 ------------------------
 Symbolic Z-matrix:
 Charge =  0 Multiplicity = 1

 SCF Done:  E(RM062X) =  -997.678524504     A.U. after   12 cycles
 SCF Done:  E(RM062X) =  -997.679589061     A.U. after   11 cycles
 SCF Done:  E(RM062X) =  -997.679645661     A.U. after    9 cycles
 SCF Done:  E(RM062X) =  -997.679650938     A.U. after    8 cycles
 Optimization completed.
    -- Stationary point found.
 Normal termination of Gaussian 09 at Fri Mar 14 14:04:12 2025.

 ---------------------------------------------------------------------
 #N Geom=AllCheck Guess=TCheck SCRF=Check GenChk RM062X/6-31+G(d) Freq
 ---------------------------------------------------------------------

 Structure from the checkpoint file:  "/srv/scratch/z5358697/gauss/Gau-2169542.chk"
 ------------------------
 (Z)-1,2-dichloroethylene
 ------------------------
 Charge =  0 Multiplicity = 1

                         Standard orientation:
 ---------------------------------------------------------------------
 Center     Atomic      Atomic             Coordinates (Angstroms)
 Number     Number       Type             X           Y           Z
 ---------------------------------------------------------------------
      1          6           0        0.664261    0.965335    0.000016
      2          6           0       -0.664256    0.965335    0.000016
      3         17           0       -1.640386   -0.452214   -0.000002
      4         17           0        1.640384   -0.452216   -0.000002
      5          1           0        1.219342    1.895648   -0.000057
      6          1           0       -1.219342    1.895645   -0.000059
 ---------------------------------------------------------------------

 SCF Done:  E(RM062X) =  -997.679650938     A.U. after    1 cycles

 The electronic state is 1-A.
 Alpha  occ. eigenvalues -- -102.68632-102.68632 -10.63221 -10.63107  -9.83319
 Alpha  occ. eigenvalues --   -9.83318  -7.55737  -7.55736  -7.55062  -7.55062
 Alpha  occ. eigenvalues --   -7.55020  -7.55020  -1.01294  -0.96292  -0.84041
 Alpha  occ. eigenvalues --   -0.66547  -0.59526  -0.53497  -0.47560  -0.47181
 Alpha  occ. eigenvalues --   -0.41522  -0.39598  -0.38390  -0.31787
 Alpha virt. eigenvalues --    0.01158   0.01840   0.02640   0.03990   0.04849
 Alpha virt. eigenvalues --    0.07031   0.07352   0.09329   0.10366   0.10763
 Alpha virt. eigenvalues --    0.11396   0.12297   0.12429   0.14692   0.15069

 Mulliken charges:
               1
     1  C   -0.279144
     2  C   -0.279146
     3  Cl   0.021454
     4  Cl   0.021455
     5  H    0.257690
     6  H    0.257690
 Sum of Mulliken charges =   0.00000

 Dipole moment (field-independent basis, Debye):
    X=              0.0000    Y=              2.0885    Z=             -0.0001  Tot=              2.0885
 Quadrupole moment (field-independent basis, Debye-Ang):
   XX=            -37.7348   YY=            -32.7249   ZZ=            -39.0128
   XY=              0.0000   XZ=              0.0000   YZ=             -0.0003

  Exact polarizability:  62.363   0.000  45.921   0.000   0.000  28.104
 Approx polarizability:  71.119   0.000  55.196   0.000   0.000  32.284

                      1                      2                      3
                      A                      A                      A
 Frequencies --    173.7207               416.2101               583.2863
 Red. masses --     26.5472                 3.8317                 9.1036
 Frc consts  --      0.4720                 0.3911                 1.8248
 IR Inten    --      0.2672                 0.0000                 4.0638

                      4                      5                      6
                      A                      A                      A
 Frequencies --    735.9342               744.6590               883.1052
 Red. masses --      1.2283                 8.9692                 4.2648
 Frc consts  --      0.3920                 2.9303                 1.9596
 IR Inten    --     70.1980                23.2968                86.4635

                      7                      8                      9
                      A                      A                      A
 Frequencies --    942.5799              1231.4088              1338.0956
 Red. masses --      1.2541                 1.0439                 1.2468
 Frc consts  --      0.6565                 0.9326                 1.3153
 IR Inten    --      0.0000                 0.0087                26.8932

                     10                     11                     12
                      A                      A                      A
 Frequencies --   1699.6625              3254.8566              3273.9998
 Red. masses --      7.6951                 1.0854                 1.1004
 Frc consts  --     13.0976                 6.7751                 6.9498
 IR Inten    --     38.5767                18.1829                 0.3569

 - Thermochemistry -
 -------------------
 Temperature   298.150 Kelvin.  Pressure   1.00000 Atm.
 Atom     1 has atomic number  6 and mass  12.00000

 Molecular mass:    95.95336 amu.
 Principal axes and moments of inertia in atomic units:
                           1         2         3
     Eigenvalues --   156.00591 720.56749 876.57340
           X            1.00000   0.00000   0.00000
           Y            0.00000   1.00000  -0.00001
           Z            0.00000   0.00001   1.00000
 This molecule is an asymmetric top.
 Rotational symmetry number  1.
 Rotational temperatures (Kelvin)      0.55520     0.12020     0.09881
 Rotational constants (GHZ):          11.56842     2.50461     2.05886
 Zero-point vibrational energy      91379.9 (Joules/Mol)
                                   21.84031 (Kcal/Mol)
 Warning -- explicit consideration of   3 degrees of freedom as
           vibrations may cause significant error
 Vibrational temperatures:    249.95   598.83   839.22  1058.84  1071.40
          (Kelvin)           1270.59  1356.16  1771.72  1925.22  2445.43
                             4683.01  4710.55

 Zero-point correction=                           0.034805 (Hartree/Particle)
 Thermal correction to Energy=                    0.039029
 Thermal correction to Enthalpy=                  0.039973
 Thermal correction to Gibbs Free Energy=         0.006561
 Sum of electronic and zero-point Energies=           -997.644846
 Sum of electronic and thermal Energies=              -997.640622
 Sum of electronic and thermal Enthalpies=            -997.639678
 Sum of electronic and thermal Free Energies=         -997.673090

                     E (Thermal)             CV                S
                      KCal/Mol        Cal/Mol-Kelvin    Cal/Mol-Kelvin
 Total                   24.491             13.168             70.321
 Electronic               0.000              0.000              0.000
 Translational            0.889              2.981             39.595
 Rotational               0.889              2.981             26.091
 Vibrational             22.713              7.206              4.634
 Vibration     1          0.627              1.875              2.395
 Vibration     2          0.779              1.435              0.905
 Vibration     3          0.940              1.067              0.479

 Optimization completed.
    -- Stationary point found.
 Normal termination of Gaussian 09 at Fri Mar 14 14:04:40 2025.
