 Gaussian 09, Revision D.01,
 Gaussian 09:  ES64L-G09RevD.01 24-Apr-2013

 ---------------------------------
 #m062X/6-31+G(d) OPT Freq=noraman
 ---------------------------------

 -------------
 fluorobenzene
 -------------
 Symbolic Z-matrix:
 Charge =  0 Multiplicity = 1

 SCF Done:  E(RM062X) =  -331.356834075     A.U. after   13 cycles
 SCF Done:  E(RM062X) =  -331.357625222     A.U. after   10 cycles
 SCF Done:  E(RM062X) =  -331.357695815     A.U. after    9 cycles
 SCF Done:  E(RM062X) =  -331.357698572     A.U. after    8 cycles
 Optimization completed.
    -- Stationary point found.

 1\1\GINC-KATANA1\FOpt\RM062X\6-31+G(d)\C6H5F1\Z5358697\16-Mar-2025\0\\
 #m062X/6-31+G(d) OPT Freq=noraman\\fluorobenzene\\0,1\C,1.8852291046,-
 1.0363357086,-0.1134411249\C,2.9202254963,-1.6304352428,0.6082162923\C
 ,2.8860248337,-1.6563090612,2.0015067391\C,1.8006915584,-1.0781692786,
 2.6417592479\C,0.7561191873,-0.4798428927,1.9540176991\C,0.8074033116,
 -0.4634108069,0.5611078183\F,1.7593443656,-1.0986014304,3.9901556918\H
 ,1.9185052163,-1.0198683276,-1.1981671256\H,3.7613511557,-2.0776951542
 ,0.0869500268\H,3.6756436906,-2.1107924543,2.5904996916\H,-0.068530034

 Normal termination of Gaussian 09 at Sun Mar 16 21:34:45 2025.

 ---------------------------------------------------------------------
 #N Geom=AllCheck Guess=TCheck SCRF=Check GenChk RM062X/6-31+G(d) Freq
 ---------------------------------------------------------------------

 Structure from the checkpoint file:  "/srv/scratch/z5358697/gauss/Gau-1927375.chk"
 -------------
 fluorobenzene
 -------------
 Charge =  0 Multiplicity = 1

                         Standard orientation:
 ---------------------------------------------------------------------
 Center     Atomic      Atomic             Coordinates (Angstroms)
 Number     Number       Type             X           Y           Z
 ---------------------------------------------------------------------
      1          6           0        1.830908    0.000003    0.000001
      2          6           0        1.132394    1.207082   -0.000007
      3          6           0       -0.261522    1.216843    0.000006
      4          6           0       -0.925906   -0.000002    0.000024
      5          6           0       -0.261518   -1.216843    0.000004
      6          6           0        1.132399   -1.207081   -0.000005
      7          9           0       -2.275091   -0.000002   -0.000013
      8          1           0        2.916269    0.000001   -0.000002
      9          1           0        1.672359    2.149255   -0.000012
     10          1           0       -0.832855    2.139093    0.000000
     11          1           0       -0.832845   -2.139096   -0.000002
     12          1           0        1.672361   -2.149254   -0.000010
 ---------------------------------------------------------------------

 SCF Done:  E(RM062X) =  -331.357698572     A.U. after    1 cycles

 The electronic state is 1-A.
 Alpha  occ. eigenvalues --  -25.27792 -10.64433 -10.57068 -10.57065 -10.56686
 Alpha  occ. eigenvalues --  -10.56686 -10.56345  -1.37180  -0.97586  -0.86210
 Alpha  occ. eigenvalues --   -0.85356  -0.71624  -0.70620  -0.63255  -0.57872
 Alpha  occ. eigenvalues --   -0.57478  -0.56527  -0.52268  -0.50689  -0.48370
 Alpha  occ. eigenvalues --   -0.44072  -0.43940  -0.41543  -0.32174  -0.30739
 Alpha virt. eigenvalues --    0.00754   0.02053   0.02335   0.03299   0.03598
 Alpha virt. eigenvalues --    0.04847   0.05310   0.07375   0.07947   0.09786
 Alpha virt. eigenvalues --    0.09929   0.10010   0.10601   0.14082   0.14209

 Mulliken charges:
               1
     1  C   -0.209231
     2  C   -0.234209
     3  C   -0.084116
     4  C    0.091256
     5  C   -0.084113
     6  C   -0.234208
     7  F   -0.338036
     8  H    0.209509
     9  H    0.213927
    10  H    0.227647
    11  H    0.227647
    12  H    0.213928
 Sum of Mulliken charges =   0.00000

 Dipole moment (field-independent basis, Debye):
    X=              1.6961    Y=              0.0000    Z=              0.0000  Tot=              1.6961
 Quadrupole moment (field-independent basis, Debye-Ang):
   XX=            -40.8413   YY=            -34.3157   ZZ=            -43.8015
   XY=              0.0000   XZ=             -0.0001   YZ=              0.0000

  Exact polarizability:  77.744   0.000  75.866   0.000   0.000  38.329
 Approx polarizability: 100.405   0.000  97.951   0.000   0.000  47.349

                      1                      2                      3
                      A                      A                      A
 Frequencies --    242.4126               411.2481               424.9212
 Red. masses --      5.2782                 6.1511                 2.9819
 Frc consts  --      0.1827                 0.6129                 0.3172
 IR Inten    --      0.0530                 2.5429                 0.0000

                      4                      5                      6
                      A                      A                      A
 Frequencies --    513.1159               523.8819               623.2465
 Red. masses --      2.8437                 8.4662                 6.5133
 Frc consts  --      0.4411                 1.3690                 1.4906
 IR Inten    --     10.5556                 4.7163                 0.1550

                      7                      8                      9
                      A                      A                      A
 Frequencies --    697.8085               776.6811               835.6121
 Red. masses --      2.5003                 1.4982                 6.1642
 Frc consts  --      0.7173                 0.5325                 2.5359
 IR Inten    --     18.6790                83.0494                24.8142

                     10                     11                     12
                      A                      A                      A
 Frequencies --    852.3900               932.3723               994.2467
 Red. masses --      1.2437                 1.4212                 1.3528
 Frc consts  --      0.5324                 0.7279                 0.7879
 IR Inten    --      0.0000                 9.7363                 0.0000

                     13                     14                     15
                      A                      A                      A
 Frequencies --   1013.8293              1025.9069              1057.6372
 Red. masses --      1.2800                 5.8827                 1.9253
 Frc consts  --      0.7751                 3.6479                 1.2689
 IR Inten    --      0.2636                 0.8781                 4.5139

                     16                     17                     18
                      A                      A                      A
 Frequencies --   1105.0193              1183.5527              1185.1583
 Red. masses --      1.3829                 1.1205                 1.1364
 Frc consts  --      0.9949                 0.9248                 0.9405
 IR Inten    --      7.3855                 0.0705                 7.4213

                     19                     20                     21
                      A                      A                      A
 Frequencies --   1289.0565              1333.8511              1366.6024
 Red. masses --      3.8441                 1.4712                 4.6710
 Frc consts  --      3.7635                 1.5421                 5.1398
 IR Inten    --     98.1571                 0.6103                 0.3111

                     22                     23                     24
                      A                      A                      A
 Frequencies --   1512.3587              1556.2312              1693.5852
 Red. masses --      2.4519                 2.6647                 6.3218
 Frc consts  --      3.3042                 3.8022                10.6833
 IR Inten    --      1.1275                91.1615                57.8462

                     25                     26                     27
                      A                      A                      A
 Frequencies --   1701.2396              3209.7266              3218.8188
 Red. masses --      7.0655                 1.0864                 1.0912
 Frc consts  --     12.0482                 6.5944                 6.6614
 IR Inten    --      9.3018                 0.0013                 8.0210

                     28                     29                     30
                      A                      A                      A
 Frequencies --   3230.2408              3246.3476              3246.9071
 Red. masses --      1.0959                 1.0949                 1.0958
 Frc consts  --      6.7371                 6.7987                 6.8064
 IR Inten    --     11.9556                 1.2696                 0.2829

 - Thermochemistry -
 -------------------
 Temperature   298.150 Kelvin.  Pressure   1.00000 Atm.
 Atom     1 has atomic number  6 and mass  12.00000

 Molecular mass:    96.03753 amu.
 Principal axes and moments of inertia in atomic units:
                           1         2         3
     Eigenvalues --   317.96760 701.317031019.28463
           X            1.00000   0.00000   0.00000
           Y            0.00000   1.00000   0.00000
           Z            0.00000   0.00000   1.00000
 This molecule is an asymmetric top.
 Rotational symmetry number  1.
 Rotational temperatures (Kelvin)      0.27240     0.12350     0.08498
 Rotational constants (GHZ):           5.67587     2.57336     1.77060
 Zero-point vibrational energy     245258.4 (Joules/Mol)
                                   58.61817 (Kcal/Mol)
 Warning -- explicit consideration of   5 degrees of freedom as
           vibrations may cause significant error
 Vibrational temperatures:    348.78   591.69   611.37   738.26   753.75
          (Kelvin)            896.71  1003.99  1117.47  1202.26  1226.40
                             1341.47  1430.50  1458.67  1476.05  1521.70
                             1589.87  1702.87  1705.18  1854.66  1919.11
                             1966.23  2175.94  2239.07  2436.69  2447.70
                             4618.07  4631.16  4647.59  4670.76  4671.57

 Zero-point correction=                           0.093414 (Hartree/Particle)
 Thermal correction to Energy=                    0.098516
 Thermal correction to Enthalpy=                  0.099460
 Thermal correction to Gibbs Free Energy=         0.064612
 Sum of electronic and zero-point Energies=           -331.264285
 Sum of electronic and thermal Energies=              -331.259183
 Sum of electronic and thermal Enthalpies=            -331.258239
 Sum of electronic and thermal Free Energies=         -331.293086

                     E (Thermal)             CV                S
                      KCal/Mol        Cal/Mol-Kelvin    Cal/Mol-Kelvin
 Total                   61.820             19.874             73.343
 Electronic               0.000              0.000              0.000
 Translational            0.889              2.981             39.598
 Rotational               0.889              2.981             26.922
 Vibrational             60.042             13.913              6.824
 Vibration     1          0.659              1.775              1.785
 Vibration     2          0.775              1.446              0.922
 Vibration     3          0.787              1.416              0.875
 Vibration     4          0.868              1.221              0.626
 Vibration     5          0.879              1.197              0.601

 Optimization completed.
    -- Stationary point found.

 1\1\GINC-KATANA1\Freq\RM062X\6-31+G(d)\C6H5F1\Z5358697\16-Mar-2025\0\\
 #N Geom=AllCheck Guess=TCheck SCRF=Check GenChk RM062X/6-31+G(d) Freq\
 \fluorobenzene\\0,1\C,1.8852291046,-1.0363357086,-0.1134411249\C,2.920
 2254963,-1.6304352428,0.6082162923\C,2.8860248337,-1.6563090612,2.0015
 067391\C,1.8006915584,-1.0781692786,2.6417592479\C,0.7561191873,-0.479
 8428927,1.9540176991\C,0.8074033116,-0.4634108069,0.5611078183\F,1.759
 3443656,-1.0986014304,3.9901556918\H,1.9185052163,-1.0198683276,-1.198
 1671256\H,3.7613511557,-2.0776951542,0.0869500268\H,3.6756436906,-2.11

 Normal termination of Gaussian 09 at Sun Mar 16 21:37:53 2025.
