 Gaussian 09, Revision D.01,
 Gaussian 09:  ES64L-G09RevD.01 24-Apr-2013

 ---------------------------------
 #m062X/6-31+G(d) OPT Freq=noraman
 ---------------------------------

 ------------------------
 methanesulfonyl chloride
 ------------------------
 Symbolic Z-matrix:
 Charge =  0 Multiplicity = 1

 SCF Done:  E(RM062X) =  -1048.53277541     A.U. after   13 cycles
 SCF Done:  E(RM062X) =  -1048.53554701     A.U. after   12 cycles
 SCF Done:  E(RM062X) =  -1048.53584882     A.U. after   11 cycles
 SCF Done:  E(RM062X) =  -1048.53592274     A.U. after   10 cycles
 SCF Done:  E(RM062X) =  -1048.53594684     A.U. after   10 cycles
 SCF Done:  E(RM062X) =  -1048.53595402     A.U. after   10 cycles
 SCF Done:  E(RM062X) =  -1048.53595622     A.U. after    9 cycles
 SCF Done:  E(RM062X) =  -1048.53595640     A.U. after    8 cycles
 Optimization completed.
    -- Stationary point found.
 Normal termination of Gaussian 09 at Wed Mar 19 12:18:06 2025.

 ---------------------------------------------------------------------
 #N Geom=AllCheck Guess=TCheck SCRF=Check GenChk RM062X/6-31+G(d) Freq
 ---------------------------------------------------------------------

 Structure from the checkpoint file:  "/srv/scratch/z5358697/gauss/Gau-3151414.chk"
 ------------------------
 methanesulfonyl chloride
 ------------------------
 Charge =  0 Multiplicity = 1

                         Standard orientation:
 ---------------------------------------------------------------------
 Center     Atomic      Atomic             Coordinates (Angstroms)
 Number     Number       Type             X           Y           Z
 ---------------------------------------------------------------------
      1          6           0       -0.981664    1.491158    0.000054
      2         16           0       -0.416230   -0.199106   -0.000005
      3          8           0       -0.749280   -0.815067   -1.263605
      4          8           0       -0.749312   -0.815197    1.263526
      5         17           0        1.637736    0.111160    0.000012
      6          1           0       -0.615242    1.977154    0.904234
      7          1           0       -0.614881    1.977382   -0.903864
      8          1           0       -2.072991    1.436602   -0.000170
 ---------------------------------------------------------------------

 SCF Done:  E(RM062X) =  -1048.53595640     A.U. after    1 cycles

 The electronic state is 1-A.
 Alpha  occ. eigenvalues -- -102.69406 -90.19956 -19.68586 -19.68584 -10.62488
 Alpha  occ. eigenvalues --   -9.84338  -8.51267  -7.56721  -7.56034  -7.56010
 Alpha  occ. eigenvalues --   -6.43522  -6.43335  -6.43234  -1.28108  -1.17249
 Alpha  occ. eigenvalues --   -0.97672  -0.90239  -0.72772  -0.62324  -0.60315
 Alpha  occ. eigenvalues --   -0.58923  -0.53861  -0.53829  -0.45782  -0.44878
 Alpha  occ. eigenvalues --   -0.42539  -0.41663  -0.40701  -0.39465
 Alpha virt. eigenvalues --   -0.04240   0.00348   0.03216   0.03919   0.04534
 Alpha virt. eigenvalues --    0.06314   0.06815   0.07470   0.08908   0.09635
 Alpha virt. eigenvalues --    0.10247   0.11745   0.13072   0.13504   0.14716

 Mulliken charges:
               1
     1  C   -0.745854
     2  S    0.739843
     3  O   -0.426004
     4  O   -0.426004
     5  Cl  -0.002126
     6  H    0.286973
     7  H    0.286973
     8  H    0.286198
 Sum of Mulliken charges =   0.00000

 Dipole moment (field-independent basis, Debye):
    X=             -0.7130    Y=              4.0459    Z=              0.0002  Tot=              4.1082
 Quadrupole moment (field-independent basis, Debye-Ang):
   XX=            -41.9705   YY=            -41.3670   ZZ=            -48.2816
   XY=             -4.1233   XZ=             -0.0001   YZ=              0.0002

  Exact polarizability:  61.073   0.750  45.295   0.000   0.000  45.171
 Approx polarizability:  73.104   5.005  51.478   0.000  -0.001  60.466

                      1                      2                      3
                      A                      A                      A
 Frequencies --    218.7940               240.0072               274.5389
 Red. masses --      1.0314                 3.8401                 8.4531
 Frc consts  --      0.0291                 0.1303                 0.3754
 IR Inten    --      0.0467                 1.4861                 1.4738

                      4                      5                      6
                      A                      A                      A
 Frequencies --    352.6524               371.2497               487.7522
 Red. masses --      4.4716                17.1726                 8.3918
 Frc consts  --      0.3276                 1.3945                 1.1763
 IR Inten    --      2.5322                 5.8508                60.1089

                      7                      8                      9
                      A                      A                      A
 Frequencies --    536.6006               772.1682               999.5442
 Red. masses --      8.8934                 6.2447                 1.3626
 Frc consts  --      1.5088                 2.1937                 0.8021
 IR Inten    --    180.9919                59.0483                37.5279

                     10                     11                     12
                      A                      A                      A
 Frequencies --   1000.4510              1198.3639              1375.5614
 Red. masses --      1.3294                13.6094                 1.2183
 Frc consts  --      0.7840                11.5150                 1.3582
 IR Inten    --      0.7652               189.2759                10.7559

                     13                     14                     15
                      A                      A                      A
 Frequencies --   1415.7940              1468.3121              1473.0552
 Red. masses --     11.9760                 1.0774                 1.0478
 Frc consts  --     14.1436                 1.3686                 1.3396
 IR Inten    --    255.8506                 0.3642                 5.6875

                     16                     17                     18
                      A                      A                      A
 Frequencies --   3106.9513              3214.0785              3236.0420
 Red. masses --      1.0295                 1.1060                 1.1098
 Frc consts  --      5.8552                 6.7316                 6.8474
 IR Inten    --      1.0256                 3.1116                 3.2379

 - Thermochemistry -
 -------------------
 Temperature   298.150 Kelvin.  Pressure   1.00000 Atm.
 Atom     1 has atomic number  6 and mass  12.00000

 Molecular mass:   113.95423 amu.
 Principal axes and moments of inertia in atomic units:
                           1         2         3
     Eigenvalues --   398.66293 667.45406 689.56753
           X            0.99705  -0.07675  -0.00001
           Y            0.07675   0.99705   0.00005
           Z            0.00000  -0.00005   1.00000
 This molecule is an asymmetric top.
 Rotational symmetry number  1.
 Rotational temperatures (Kelvin)      0.21726     0.12977     0.12561
 Rotational constants (GHZ):           4.52699     2.70392     2.61721
 Zero-point vibrational energy     130045.5 (Joules/Mol)
                                   31.08163 (Kcal/Mol)
 Warning -- explicit consideration of   7 degrees of freedom as
           vibrations may cause significant error
 Vibrational temperatures:    314.80   345.32   395.00   507.39   534.14
          (Kelvin)            701.77   772.05  1110.98  1438.12  1439.42
                             1724.18  1979.12  2037.01  2112.57  2119.40
                             4470.20  4624.34  4655.94

 Zero-point correction=                           0.049532 (Hartree/Particle)
 Thermal correction to Energy=                    0.055182
 Thermal correction to Enthalpy=                  0.056126
 Thermal correction to Gibbs Free Energy=         0.019935
 Sum of electronic and zero-point Energies=          -1048.486425
 Sum of electronic and thermal Energies=             -1048.480774
 Sum of electronic and thermal Enthalpies=           -1048.479830
 Sum of electronic and thermal Free Energies=        -1048.516021

                     E (Thermal)             CV                S
                      KCal/Mol        Cal/Mol-Kelvin    Cal/Mol-Kelvin
 Total                   34.627             18.861             76.170
 Electronic               0.000              0.000              0.000
 Translational            0.889              2.981             40.107
 Rotational               0.889              2.981             26.709
 Vibrational             32.850             12.899              9.354
 Vibration     1          0.647              1.812              1.969
 Vibration     2          0.657              1.779              1.803
 Vibration     3          0.677              1.720              1.567
 Vibration     4          0.729              1.570              1.154
 Vibration     5          0.743              1.531              1.075
 Vibration     6          0.844              1.277              0.689
 Vibration     7          0.892              1.169              0.573

 Optimization completed.
    -- Stationary point found.
 Normal termination of Gaussian 09 at Wed Mar 19 12:19:06 2025.
