 Gaussian 09, Revision D.01,
 Gaussian 09:  ES64L-G09RevD.01 24-Apr-2013

 ---------------------------------
 #m062X/6-31+G(d) OPT Freq=noraman
 ---------------------------------

 -----------------------
 pyridine-4-carbonitrile
 -----------------------
 Symbolic Z-matrix:
 Charge =  0 Multiplicity = 1

 SCF Done:  E(RM062X) =  -340.393088149     A.U. after   14 cycles
 SCF Done:  E(RM062X) =  -340.394023628     A.U. after   12 cycles
 SCF Done:  E(RM062X) =  -340.394070293     A.U. after   10 cycles
 SCF Done:  E(RM062X) =  -340.394071139     A.U. after    9 cycles
 Optimization completed.
    -- Stationary point found.

 1\1\GINC-KATANA1\FOpt\RM062X\6-31+G(d)\C6H4N2\Z5358697\16-Mar-2025\0\\
 #m062X/6-31+G(d) OPT Freq=noraman\\pyridine-4-carbonitrile\\0,1\C,0.22
 22667737,-0.4231305761,0.9742879523\C,-0.6352037901,-1.3307742804,1.59
 12225303\N,-0.4031042822,-1.8754451516,2.7871768476\C,0.7179582547,-1.
 5231836571,3.4196072679\C,1.649336653,-0.6260141712,2.9025857379\C,1.3
 902538796,-0.066069898,1.6503606633\C,2.3173343718,0.8693158874,1.0626
 414735\N,3.0608850259,1.6196314105,0.5910810168\H,-0.0083105633,-0.006
 0673527,-0.0000250152\H,-1.5548204491,-1.6346059698,1.0979445147\H,0.8

 Normal termination of Gaussian 09 at Sun Mar 16 22:07:58 2025.

 ---------------------------------------------------------------------
 #N Geom=AllCheck Guess=TCheck SCRF=Check GenChk RM062X/6-31+G(d) Freq
 ---------------------------------------------------------------------

 Structure from the checkpoint file:  "/srv/scratch/z5358697/gauss/Gau-1930101.chk"
 -----------------------
 pyridine-4-carbonitrile
 -----------------------
 Charge =  0 Multiplicity = 1

                         Standard orientation:
 ---------------------------------------------------------------------
 Center     Atomic      Atomic             Coordinates (Angstroms)
 Number     Number       Type             X           Y           Z
 ---------------------------------------------------------------------
      1          6           0       -0.112614   -1.203720    0.000004
      2          6           0       -1.503944   -1.141422   -0.000023
      3          7           0       -2.195418   -0.000060    0.000005
      4          6           0       -1.504033    1.141353    0.000012
      5          6           0       -0.112705    1.203773   -0.000008
      6          6           0        0.594263    0.000060    0.000002
      7          6           0        2.036428    0.000088   -0.000001
      8          7           0        3.193238   -0.000050    0.000002
      9          1           0        0.406745   -2.155907    0.000023
     10          1           0       -2.091133   -2.056048    0.000030
     11          1           0       -2.091293    2.055932   -0.000002
     12          1           0        0.406568    2.156007   -0.000019
 ---------------------------------------------------------------------

 SCF Done:  E(RM062X) =  -340.394071139     A.U. after    1 cycles

 The electronic state is 1-A.
 Alpha  occ. eigenvalues --  -14.79476 -14.79229 -10.63420 -10.61772 -10.61771
 Alpha  occ. eigenvalues --  -10.61263 -10.60103 -10.60102  -1.08783  -1.03769
 Alpha  occ. eigenvalues --   -0.95407  -0.89523  -0.77942  -0.75305  -0.66801
 Alpha  occ. eigenvalues --   -0.59270  -0.58186  -0.54356  -0.52999  -0.51314
 Alpha  occ. eigenvalues --   -0.46758  -0.45969  -0.45146  -0.41879  -0.36348
 Alpha  occ. eigenvalues --   -0.35398  -0.34947
 Alpha virt. eigenvalues --   -0.05038  -0.01530   0.00419   0.02343   0.02978
 Alpha virt. eigenvalues --    0.04034   0.04436   0.04615   0.05907   0.06049
 Alpha virt. eigenvalues --    0.06896   0.08268   0.08469   0.09010   0.10164

 Mulliken charges:
               1
     1  C    0.249161
     2  C   -0.343471
     3  N   -0.130482
     4  C   -0.343446
     5  C    0.248954
     6  C    0.321722
     7  C   -0.489304
     8  N   -0.441895
     9  H    0.245770
    10  H    0.218612
    11  H    0.218610
    12  H    0.245768
 Sum of Mulliken charges =   0.00000

 Dipole moment (field-independent basis, Debye):
    X=             -1.9532    Y=              0.0002    Z=              0.0000  Tot=              1.9532
 Quadrupole moment (field-independent basis, Debye-Ang):
   XX=            -64.0894   YY=            -37.1100   ZZ=            -47.6992
   XY=              0.0000   XZ=              0.0000   YZ=             -0.0002

  Exact polarizability: 106.331  -0.001  77.908   0.000   0.000  40.593
 Approx polarizability: 135.867  -0.003 102.758   0.000   0.000  50.970

                      1                      2                      3
                      A                      A                      A
 Frequencies --    146.1934               161.8419               385.0736
 Red. masses --      8.2576                 6.9999                 2.5850
 Frc consts  --      0.1040                 0.1080                 0.2258
 IR Inten    --      8.6813                 7.7394                 0.0000

                      4                      5                      6
                      A                      A                      A
 Frequencies --    391.2853               456.5277               562.7964
 Red. masses --      7.2914                 9.9110                 8.3405
 Frc consts  --      0.6577                 1.2170                 1.5565
 IR Inten    --      1.0487                 0.7352                 0.0438

                      7                      8                      9
                      A                      A                      A
 Frequencies --    583.7357               685.9204               753.3773
 Red. masses --      3.8821                 7.1030                 3.4448
 Frc consts  --      0.7794                 1.9690                 1.1520
 IR Inten    --     24.1345                 0.1361                 0.0558

                     10                     11                     12
                      A                      A                      A
 Frequencies --    784.8832               849.7275               897.9683
 Red. masses --      6.5401                 1.4564                 1.2524
 Frc consts  --      2.3738                 0.6196                 0.5950
 IR Inten    --     13.9201                44.5269                 0.0000

                     13                     14                     15
                      A                      A                      A
 Frequencies --   1004.8836              1023.9308              1029.5020
 Red. masses --      1.3319                 7.4434                 1.4519
 Frc consts  --      0.7924                 4.5979                 0.9066
 IR Inten    --      0.2629                 2.2270                 0.0000

                     16                     17                     18
                      A                      A                      A
 Frequencies --   1106.8939              1123.7909              1234.7739
 Red. masses --      1.8450                 1.4605                 3.0979
 Frc consts  --      1.3319                 1.0868                 2.7828
 IR Inten    --      4.1787                 1.0994                 0.2678

                     19                     20                     21
                      A                      A                      A
 Frequencies --   1264.8401              1291.5577              1364.4468
 Red. masses --      1.3571                11.6826                 1.3393
 Frc consts  --      1.2792                11.4820                 1.4691
 IR Inten    --      3.5456                 6.8346                 0.7764

                     22                     23                     24
                      A                      A                      A
 Frequencies --   1466.4597              1551.7072              1653.9094
 Red. masses --      2.0470                 2.3321                 8.3975
 Frc consts  --      2.5937                 3.3084                13.5340
 IR Inten    --     22.8221                 3.4698                23.2581

                     25                     26                     27
                      A                      A                      A
 Frequencies --   1684.7719              2410.7756              3224.0970
 Red. masses --      5.8226                12.6869                 1.0884
 Frc consts  --      9.7375                43.4429                 6.6656
 IR Inten    --     33.6919                10.8274                16.1891

                     28                     29                     30
                      A                      A                      A
 Frequencies --   3225.3974              3241.5753              3243.0408
 Red. masses --      1.0907                 1.0963                 1.0984
 Frc consts  --      6.6855                 6.7875                 6.8061
 IR Inten    --      1.6360                 3.8604                 1.4902

 - Thermochemistry -
 -------------------
 Temperature   298.150 Kelvin.  Pressure   1.00000 Atm.
 Atom     1 has atomic number  6 and mass  12.00000

 Molecular mass:   104.03745 amu.
 Principal axes and moments of inertia in atomic units:
                           1         2         3
     Eigenvalues --   299.726211171.001841470.72805
           X            1.00000   0.00000   0.00000
           Y            0.00000   1.00000   0.00000
           Z            0.00000   0.00000   1.00000
 This molecule is an asymmetric top.
 Rotational symmetry number  1.
 Rotational temperatures (Kelvin)      0.28898     0.07397     0.05889
 Rotational constants (GHZ):           6.02130     1.54119     1.22711
 Zero-point vibrational energy     232109.5 (Joules/Mol)
                                   55.47551 (Kcal/Mol)
 Warning -- explicit consideration of   7 degrees of freedom as
           vibrations may cause significant error
 Vibrational temperatures:    210.34   232.85   554.03   562.97   656.84
          (Kelvin)            809.74   839.86   986.89  1083.94  1129.27
                             1222.57  1291.97  1445.80  1473.21  1481.22
                             1592.57  1616.88  1776.56  1819.82  1858.26
                             1963.13  2109.91  2232.56  2379.60  2424.01
                             3468.56  4638.75  4640.62  4663.90  4666.01

 Zero-point correction=                           0.088406 (Hartree/Particle)
 Thermal correction to Energy=                    0.094388
 Thermal correction to Enthalpy=                  0.095332
 Thermal correction to Gibbs Free Energy=         0.058158
 Sum of electronic and zero-point Energies=           -340.305665
 Sum of electronic and thermal Energies=              -340.299683
 Sum of electronic and thermal Enthalpies=            -340.298739
 Sum of electronic and thermal Free Energies=         -340.335913

                     E (Thermal)             CV                S
                      KCal/Mol        Cal/Mol-Kelvin    Cal/Mol-Kelvin
 Total                   59.230             22.068             78.241
 Electronic               0.000              0.000              0.000
 Translational            0.889              2.981             39.836
 Rotational               0.889              2.981             27.737
 Vibrational             57.452             16.106             10.668
 Vibration     1          0.617              1.907              2.721
 Vibration     2          0.622              1.889              2.528
 Vibration     3          0.754              1.502              1.019
 Vibration     4          0.759              1.489              0.995
 Vibration     5          0.815              1.346              0.776
 Vibration     6          0.919              1.112              0.518
 Vibration     7          0.941              1.067              0.478

 Optimization completed.
    -- Stationary point found.

 1\1\GINC-KATANA1\Freq\RM062X\6-31+G(d)\C6H4N2\Z5358697\16-Mar-2025\0\\
 #N Geom=AllCheck Guess=TCheck SCRF=Check GenChk RM062X/6-31+G(d) Freq\
 \pyridine-4-carbonitrile\\0,1\C,0.2222667737,-0.4231305761,0.974287952
 3\C,-0.6352037901,-1.3307742804,1.5912225303\N,-0.4031042822,-1.875445
 1516,2.7871768476\C,0.7179582547,-1.5231836571,3.4196072679\C,1.649336
 653,-0.6260141712,2.9025857379\C,1.3902538796,-0.066069898,1.650360663
 3\C,2.3173343718,0.8693158874,1.0626414735\N,3.0608850259,1.6196314105
 ,0.5910810168\H,-0.0083105633,-0.0060673527,-0.0000250152\H,-1.5548204

 Normal termination of Gaussian 09 at Sun Mar 16 22:11:44 2025.
