 Gaussian 09, Revision D.01,
 Gaussian 09:  ES64L-G09RevD.01 24-Apr-2013

 ---------------------------------
 #m062X/6-31+G(d) OPT Freq=noraman
 ---------------------------------

 ---------
 isobutane
 ---------
 Symbolic Z-matrix:
 Charge =  0 Multiplicity = 1

 SCF Done:  E(RM062X) =  -158.363306462     A.U. after   11 cycles
 SCF Done:  E(RM062X) =  -158.363412090     A.U. after    9 cycles
 SCF Done:  E(RM062X) =  -158.363407286     A.U. after    8 cycles
 SCF Done:  E(RM062X) =  -158.363404359     A.U. after    7 cycles
 SCF Done:  E(RM062X) =  -158.363382664     A.U. after    8 cycles
 SCF Done:  E(RM062X) =  -158.363391743     A.U. after    7 cycles
 SCF Done:  E(RM062X) =  -158.363397566     A.U. after    8 cycles
 SCF Done:  E(RM062X) =  -158.363399138     A.U. after    8 cycles
 SCF Done:  E(RM062X) =  -158.363390251     A.U. after    7 cycles
 SCF Done:  E(RM062X) =  -158.363398817     A.U. after    7 cycles
 Optimization completed.
    -- Stationary point found.
 Normal termination of Gaussian 09 at Mon Mar 17 15:42:03 2025.

 ---------------------------------------------------------------------
 #N Geom=AllCheck Guess=TCheck SCRF=Check GenChk RM062X/6-31+G(d) Freq
 ---------------------------------------------------------------------

 Structure from the checkpoint file:  "/srv/scratch/z5358697/gauss/Gau-2107707.chk"
 ---------
 isobutane
 ---------
 Charge =  0 Multiplicity = 1

                         Standard orientation:
 ---------------------------------------------------------------------
 Center     Atomic      Atomic             Coordinates (Angstroms)
 Number     Number       Type             X           Y           Z
 ---------------------------------------------------------------------
      1          6           0       -1.438783    0.200794    0.096443
      2          6           0       -0.000151    0.000039   -0.380713
      3          6           0        0.893343    1.145322    0.096450
      4          6           0        0.545488   -1.346127    0.096443
      5          1           0       -2.093288   -0.602956   -0.258670
      6          1           0       -1.480101    0.206359    1.193293
      7          1           0       -1.847925    1.153214   -0.258447
      8          1           0       -0.000107    0.000050   -1.480033
      9          1           0        1.922584    1.023115   -0.258712
     10          1           0        0.919085    1.177873    1.193282
     11          1           0        0.524863    2.114169   -0.258462
     12          1           0        1.567164   -1.512670   -0.262474
     13          1           0       -0.077011   -2.176544   -0.254765
     14          1           0        0.565352   -1.382778    1.193253
 ---------------------------------------------------------------------

 SCF Done:  E(RM062X) =  -158.363398817     A.U. after    1 cycles

 The electronic state is 1-A.
 Alpha  occ. eigenvalues --  -10.54803 -10.53200 -10.53200 -10.53198  -0.90328
 Alpha  occ. eigenvalues --   -0.77226  -0.77222  -0.63956  -0.53450  -0.49830
 Alpha  occ. eigenvalues --   -0.49827  -0.44666  -0.44660  -0.42495  -0.38491
 Alpha  occ. eigenvalues --   -0.38489  -0.38086
 Alpha virt. eigenvalues --    0.02774   0.04413   0.04413   0.05019   0.07496
 Alpha virt. eigenvalues --    0.07986   0.07989   0.08765   0.08768   0.11630
 Alpha virt. eigenvalues --    0.12261   0.13114   0.13116   0.15024   0.15025

 Mulliken charges:
               1
     1  C   -0.559499
     2  C   -0.394082
     3  C   -0.559133
     4  C   -0.559351
     5  H    0.205724
     6  H    0.211900
     7  H    0.205780
     8  H    0.201865
     9  H    0.205753
    10  H    0.211874
    11  H    0.205792
    12  H    0.205844
    13  H    0.205643
    14  H    0.211890
 Sum of Mulliken charges =   0.00000

 Dipole moment (field-independent basis, Debye):
    X=              0.0001    Y=              0.0003    Z=             -0.1351  Tot=              0.1351
 Quadrupole moment (field-independent basis, Debye-Ang):
   XX=            -29.2221   YY=            -29.2222   ZZ=            -28.6657
   XY=              0.0000   XZ=             -0.0010   YZ=             -0.0001

  Exact polarizability:  49.966  -0.067  50.022   0.005  -0.060  45.111
 Approx polarizability:  52.133   0.003  52.135  -0.001   0.000  52.720

                      1                      2                      3
                      A                      A                      A
 Frequencies --    205.1225               265.5636               269.9296
 Red. masses --      1.0129                 1.0579                 1.0680
 Frc consts  --      0.0251                 0.0440                 0.0458
 IR Inten    --      0.0010                 0.0166                 0.0218

                      4                      5                      6
                      A                      A                      A
 Frequencies --    368.9177               372.7927               438.3608
 Red. masses --      2.0800                 2.0429                 1.9162
 Frc consts  --      0.1668                 0.1673                 0.2170
 IR Inten    --      0.0483                 0.0640                 0.0382

                      7                      8                      9
                      A                      A                      A
 Frequencies --    821.9610               929.6883               932.6329
 Red. masses --      2.7319                 1.1663                 1.1701
 Frc consts  --      1.0875                 0.5939                 0.5996
 IR Inten    --      0.4658                 0.9849                 1.0746

                     10                     11                     12
                      A                      A                      A
 Frequencies --    959.8960               993.2618               994.0885
 Red. masses --      1.2025                 1.7491                 1.7619
 Frc consts  --      0.6528                 1.0167                 1.0258
 IR Inten    --      0.0061                 0.1029                 0.1153

                     13                     14                     15
                      A                      A                      A
 Frequencies --   1207.3232              1207.9299              1218.9345
 Red. masses --      1.6823                 1.6877                 1.9326
 Frc consts  --      1.4448                 1.4508                 1.6918
 IR Inten    --      1.4423                 1.4971                 0.0116

                     16                     17                     18
                      A                      A                      A
 Frequencies --   1367.5771              1370.0656              1421.5282
 Red. masses --      1.4137                 1.4174                 1.3382
 Frc consts  --      1.5578                 1.5675                 1.5932
 IR Inten    --      1.7093                 1.7097                10.8570

                     19                     20                     21
                      A                      A                      A
 Frequencies --   1423.5083              1448.1260              1503.2614
 Red. masses --      1.3286                 1.2417                 1.0480
 Frc consts  --      1.5862                 1.5342                 1.3953
 IR Inten    --     10.7981                 5.5139                 0.0275

                     22                     23                     24
                      A                      A                      A
 Frequencies --   1511.5611              1512.7221              1529.2786
 Red. masses --      1.0406                 1.0411                 1.0619
 Frc consts  --      1.4009                 1.4036                 1.4632
 IR Inten    --      0.2499                 0.6523                 5.8416

                     25                     26                     27
                      A                      A                      A
 Frequencies --   1529.7861              1539.9789              3046.9453
 Red. masses --      1.0624                 1.0454                 1.0823
 Frc consts  --      1.4649                 1.4607                 5.9203
 IR Inten    --      6.2483                21.5810                10.8193

                     28                     29                     30
                      A                      A                      A
 Frequencies --   3055.0646              3056.5589              3061.6028
 Red. masses --      1.0363                 1.0365                 1.0390
 Frc consts  --      5.6989                 5.7053                 5.7380
 IR Inten    --     33.8557                36.8843                22.3308

                     31                     32                     33
                      A                      A                      A
 Frequencies --   3124.0025              3125.4000              3131.8891
 Red. masses --      1.1009                 1.1010                 1.0999
 Frc consts  --      6.3302                 6.3366                 6.3564
 IR Inten    --      4.9117                14.7366                87.5378

                     34                     35                     36
                      A                      A                      A
 Frequencies --   3138.8295              3141.8250              3144.0107
 Red. masses --      1.1027                 1.1021                 1.1014
 Frc consts  --      6.4009                 6.4096                 6.4143
 IR Inten    --     22.4780                21.7566                57.0419

 - Thermochemistry -
 -------------------
 Temperature   298.150 Kelvin.  Pressure   1.00000 Atm.
 Atom     1 has atomic number  6 and mass  12.00000

 Molecular mass:    58.07825 amu.
 Principal axes and moments of inertia in atomic units:
                           1         2         3
     Eigenvalues --   230.94410 231.04039 397.80361
           X            0.99998   0.00642  -0.00001
           Y           -0.00642   0.99998   0.00000
           Z            0.00001   0.00000   1.00000
 This molecule is an asymmetric top.
 Rotational symmetry number  1.
 Rotational temperatures (Kelvin)      0.37504     0.37489     0.21773
 Rotational constants (GHZ):           7.81462     7.81137     4.53676
 Zero-point vibrational energy     349129.7 (Joules/Mol)
                                   83.44400 (Kcal/Mol)
 Warning -- explicit consideration of   6 degrees of freedom as
           vibrations may cause significant error
 Vibrational temperatures:    295.13   382.09   388.37   530.79   536.36
          (Kelvin)            630.70  1182.62  1337.61  1341.85  1381.07
                             1429.08  1430.27  1737.07  1737.94  1753.77
                             1967.64  1971.22  2045.26  2048.11  2083.53
                             2162.86  2174.80  2176.47  2200.29  2201.02
                             2215.68  4383.87  4395.55  4397.70  4404.96
                             4494.74  4496.75  4506.08  4516.07  4520.38
                             4523.52

 Zero-point correction=                           0.132976 (Hartree/Particle)
 Thermal correction to Energy=                    0.138636
 Thermal correction to Enthalpy=                  0.139580
 Thermal correction to Gibbs Free Energy=         0.105386
 Sum of electronic and zero-point Energies=           -158.230422
 Sum of electronic and thermal Energies=              -158.224763
 Sum of electronic and thermal Enthalpies=            -158.223819
 Sum of electronic and thermal Free Energies=         -158.258013

                     E (Thermal)             CV                S
                      KCal/Mol        Cal/Mol-Kelvin    Cal/Mol-Kelvin
 Total                   86.995             19.967             71.967
 Electronic               0.000              0.000              0.000
 Translational            0.889              2.981             38.098
 Rotational               0.889              2.981             24.566
 Vibrational             85.218             14.005              9.303
 Vibration     1          0.640              1.833              2.087
 Vibration     2          0.671              1.736              1.625
 Vibration     3          0.674              1.729              1.597
 Vibration     4          0.741              1.536              1.084
 Vibration     5          0.744              1.528              1.068
 Vibration     6          0.799              1.387              0.832

 Normal termination of Gaussian 09 at Mon Mar 17 15:43:49 2025.
