 Gaussian 09, Revision D.01,
 Gaussian 09:  ES64L-G09RevD.01 24-Apr-2013

 ---------------------------------
 #m062X/6-31+G(d) OPT Freq=noraman
 ---------------------------------

 ---------------------
 4-methyl-1H-imidazole
 ---------------------
 Symbolic Z-matrix:
 Charge =  0 Multiplicity = 1

 SCF Done:  E(RM062X) =  -265.417705505     A.U. after   13 cycles
 SCF Done:  E(RM062X) =  -265.427633427     A.U. after   12 cycles
 SCF Done:  E(RM062X) =  -265.428599543     A.U. after   11 cycles
 SCF Done:  E(RM062X) =  -265.428721387     A.U. after   11 cycles
 SCF Done:  E(RM062X) =  -265.428823071     A.U. after   11 cycles
 SCF Done:  E(RM062X) =  -265.428935069     A.U. after   11 cycles
 SCF Done:  E(RM062X) =  -265.429144256     A.U. after   12 cycles
 SCF Done:  E(RM062X) =  -265.429230556     A.U. after   10 cycles
 SCF Done:  E(RM062X) =  -265.429247829     A.U. after   11 cycles
 SCF Done:  E(RM062X) =  -265.429249173     A.U. after   10 cycles
 SCF Done:  E(RM062X) =  -265.429250198     A.U. after    9 cycles
 SCF Done:  E(RM062X) =  -265.429250703     A.U. after    8 cycles
 SCF Done:  E(RM062X) =  -265.429250907     A.U. after    9 cycles
 SCF Done:  E(RM062X) =  -265.429250959     A.U. after    8 cycles
 Optimization completed.
    -- Stationary point found.

 The electronic state is 1-A.
 Alpha  occ. eigenvalues --  -14.82322 -14.74088 -10.60441 -10.57581 -10.56617
 Alpha  occ. eigenvalues --  -10.53637  -1.13104  -0.97784  -0.86246  -0.78688
 Alpha  occ. eigenvalues --   -0.69767  -0.65241  -0.62487  -0.52094  -0.51662
 Alpha  occ. eigenvalues --   -0.50257  -0.46324  -0.45092  -0.43809  -0.33907
 Alpha  occ. eigenvalues --   -0.33762  -0.27717
 Alpha virt. eigenvalues --    0.01021   0.03125   0.03857   0.03874   0.05265
 Alpha virt. eigenvalues --    0.06295   0.07345   0.07509   0.08548   0.09508
 Alpha virt. eigenvalues --    0.10074   0.11793   0.12328   0.13303   0.14710

 Mulliken charges:
               1
     1  C   -0.899671
     2  C    0.113376
     3  C   -0.070355
     4  N   -0.550423
     5  C    0.177097
     6  N   -0.303379
     7  H    0.228356
     8  H    0.202921
     9  H    0.228359
    10  H    0.224543
    11  H    0.437477
    12  H    0.211698
 Sum of Mulliken charges =   0.00000

 Dipole moment (field-independent basis, Debye):
    X=              2.1928    Y=              2.8134    Z=              0.0000  Tot=              3.5670
 Quadrupole moment (field-independent basis, Debye-Ang):
   XX=            -26.9308   YY=            -36.3893   ZZ=            -38.8028
   XY=              0.6588   XZ=              0.0001   YZ=              0.0007

 1\1\GINC-KATANA3\FOpt\RM062X\6-31+G(d)\C4H6N2\Z5358697\20-Mar-2025\0\\
 #m062X/6-31+G(d) OPT Freq=noraman\\4-methyl-1H-imidazole\\0,1\C,-0.191
 9675131,0.285465764,0.1296743121\C,0.6957071321,-0.8076945019,-0.37139
 73731\C,1.9437689833,-0.7126951807,-0.9337416619\N,2.3198533213,-2.007
 1358754,-1.2185610215\C,1.2998507155,-2.8156181493,-0.8226865192\N,0.3
 09094207,-2.1283164898,-0.3097326714\H,-0.412275972,0.1457565798,1.192
 5842977\H,0.2791544024,1.2636847868,-0.0006642106\H,-1.1447170691,0.28
 50797312,-0.4089344778\H,2.5783728862,0.133420238,-1.1499989525\H,3.18

 Normal termination of Gaussian 09 at Thu Mar 20 23:48:23 2025.

 ---------------------------------------------------------------------
 #N Geom=AllCheck Guess=TCheck SCRF=Check GenChk RM062X/6-31+G(d) Freq
 ---------------------------------------------------------------------

 Structure from the checkpoint file:  "/srv/scratch/z5358697/gauss/Gau-3811647.chk"
 ---------------------
 4-methyl-1H-imidazole
 ---------------------
 Charge =  0 Multiplicity = 1

                         Standard orientation:
 ---------------------------------------------------------------------
 Center     Atomic      Atomic             Coordinates (Angstroms)
 Number     Number       Type             X           Y           Z
 ---------------------------------------------------------------------
      1          6           0       -2.149941   -0.009899   -0.000031
      2          6           0       -0.655575    0.020247    0.000024
      3          6           0        0.182944    1.106432    0.000004
      4          7           0        1.459224    0.587540   -0.000029
      5          6           0        1.339347   -0.767596   -0.000014
      6          7           0        0.083604   -1.142048    0.000053
      7          1           0       -2.524419   -0.536445    0.883342
      8          1           0       -2.562403    1.002885   -0.000230
      9          1           0       -2.524345   -0.536804   -0.883220
     10          1           0       -0.007964    2.168955    0.000112
     11          1           0        2.320741    1.112987    0.000035
     12          1           0        2.197949   -1.425130   -0.000102
 ---------------------------------------------------------------------

 SCF Done:  E(RM062X) =  -265.429250959     A.U. after    1 cycles
 Error termination via Lnk1e in /apps/z_install_tree/linux-rocky8-ivybridge/gcc-12.2.0/gaussian-09-D.01-wczn3gur5lpur3omlkzwa2l5ecyxp5ef/g09/l1002.exe at Thu Mar 20 23:49:28 2025.
