 Gaussian 09, Revision D.01,
 Gaussian 09:  ES64L-G09RevD.01 24-Apr-2013

 ---------------------------------
 #m062X/6-31+G(d) OPT Freq=noraman
 ---------------------------------

 ---------------------------
 1,1,2,2-tetrachloroethylene
 ---------------------------
 Symbolic Z-matrix:
 Charge =  0 Multiplicity = 1

 SCF Done:  E(RM062X) =  -1916.79961985     A.U. after   11 cycles
 SCF Done:  E(RM062X) =  -1916.80040472     A.U. after   11 cycles
 SCF Done:  E(RM062X) =  -1916.80042994     A.U. after    9 cycles
 SCF Done:  E(RM062X) =  -1916.80043119     A.U. after    8 cycles
 Optimization completed.
    -- Stationary point found.
 Normal termination of Gaussian 09 at Fri Mar 14 14:05:53 2025.

 ---------------------------------------------------------------------
 #N Geom=AllCheck Guess=TCheck SCRF=Check GenChk RM062X/6-31+G(d) Freq
 ---------------------------------------------------------------------

 Structure from the checkpoint file:  "/srv/scratch/z5358697/gauss/Gau-1831155.chk"
 ---------------------------
 1,1,2,2-tetrachloroethylene
 ---------------------------
 Charge =  0 Multiplicity = 1

                         Standard orientation:
 ---------------------------------------------------------------------
 Center     Atomic      Atomic             Coordinates (Angstroms)
 Number     Number       Type             X           Y           Z
 ---------------------------------------------------------------------
      1          6           0       -0.670379    0.000000   -0.000072
      2          6           0        0.670379   -0.000007   -0.000065
      3         17           0        1.588792   -1.451780    0.000012
      4         17           0        1.588787    1.451778    0.000012
      5         17           0       -1.588784    1.451781    0.000012
      6         17           0       -1.588795   -1.451777    0.000012
 ---------------------------------------------------------------------

 SCF Done:  E(RM062X) =  -1916.80043119     A.U. after    1 cycles

 The electronic state is 1-A.
 Alpha  occ. eigenvalues -- -102.71008-102.71007-102.71007-102.71007 -10.70057
 Alpha  occ. eigenvalues --  -10.69953  -9.85667  -9.85666  -9.85666  -9.85665
 Alpha  occ. eigenvalues --   -7.58114  -7.58112  -7.58112  -7.58111  -7.57372
 Alpha  occ. eigenvalues --   -7.57371  -7.57371  -7.57371  -7.57350  -7.57349
 Alpha  occ. eigenvalues --   -7.57349  -7.57349  -1.07769  -1.01795  -0.97317
 Alpha  occ. eigenvalues --   -0.94826  -0.83185  -0.64967  -0.58900  -0.58637
 Alpha  occ. eigenvalues --   -0.53450  -0.50633  -0.45934  -0.43548  -0.42799
 Alpha  occ. eigenvalues --   -0.42338  -0.41783  -0.41023  -0.38101  -0.31691
 Alpha virt. eigenvalues --   -0.00853   0.00650   0.00652   0.01386   0.03572
 Alpha virt. eigenvalues --    0.04869   0.05099   0.05272   0.06397   0.08033
 Alpha virt. eigenvalues --    0.09528   0.09559   0.10308   0.11996   0.12266

 Mulliken charges:
               1
     1  C   -0.334083
     2  C   -0.334083
     3  Cl   0.167056
     4  Cl   0.167027
     5  Cl   0.167050
     6  Cl   0.167032
 Sum of Mulliken charges =   0.00000

 Dipole moment (field-independent basis, Debye):
    X=              0.0000    Y=              0.0000    Z=              0.0000  Tot=              0.0000
 Quadrupole moment (field-independent basis, Debye-Ang):
   XX=            -61.0401   YY=            -59.1725   ZZ=            -61.9727
   XY=             -0.0001   XZ=              0.0000   YZ=              0.0000

  Exact polarizability:  87.930   0.000  81.881   0.000   0.000  40.156
 Approx polarizability: 101.827   0.000  99.283   0.000   0.000  49.033

                      1                      2                      3
                      A                      A                      A
 Frequencies --     89.4470               188.2464               246.6554
 Red. masses --     34.9689                31.7073                34.9473
 Frc consts  --      0.1648                 0.6620                 1.2527
 IR Inten    --      0.0000                 1.0639                 0.0000

                      4                      5                      6
                      A                      A                      A
 Frequencies --    270.1684               318.8602               355.4224
 Red. masses --     13.2772                28.2954                31.4829
 Frc consts  --      0.5710                 1.6950                 2.3432
 IR Inten    --      0.3565                 0.0988                 0.0000

                      7                      8                      9
                      A                      A                      A
 Frequencies --    463.6259               528.7740               810.6143
 Red. masses --     34.6242                12.2383                14.5831
 Frc consts  --      4.3850                 2.0161                 5.6458
 IR Inten    --      0.0000                 0.0000                69.1154

                     10                     11                     12
                      A                      A                      A
 Frequencies --    928.4211              1011.4912              1682.5757
 Red. masses --     13.8168                12.6150                12.0437
 Frc consts  --      7.0170                 7.6044                20.0890
 IR Inten    --    200.3949                 0.0000                 0.0000

 - Thermochemistry -
 -------------------
 Temperature   298.150 Kelvin.  Pressure   1.00000 Atm.
 Atom     1 has atomic number  6 and mass  12.00000

 Molecular mass:   163.87541 amu.
 Principal axes and moments of inertia in atomic units:
                           1         2         3
     Eigenvalues --  1052.786151299.391472352.17762
           X            1.00000   0.00000   0.00000
           Y            0.00000   1.00000   0.00000
           Z            0.00000   0.00000   1.00000
 This molecule is an asymmetric top.
 Rotational symmetry number  1.
 Warning -- assumption of classical behavior for rotation
           may cause significant error
 Rotational temperatures (Kelvin)      0.08227     0.06666     0.03682
 Rotational constants (GHZ):           1.71425     1.38891     0.76726
 Zero-point vibrational energy      41237.1 (Joules/Mol)
                                    9.85590 (Kcal/Mol)
 Warning -- explicit consideration of   8 degrees of freedom as
           vibrations may cause significant error
 Vibrational temperatures:    128.69   270.84   354.88   388.71   458.77
          (Kelvin)            511.37   667.05   760.79  1166.29  1335.79
                             1455.31  2420.85

 Zero-point correction=                           0.015706 (Hartree/Particle)
 Thermal correction to Energy=                    0.022193
 Thermal correction to Enthalpy=                  0.023137
 Thermal correction to Gibbs Free Energy=        -0.016885
 Sum of electronic and zero-point Energies=          -1916.784725
 Sum of electronic and thermal Energies=             -1916.778238
 Sum of electronic and thermal Enthalpies=           -1916.777294
 Sum of electronic and thermal Free Energies=        -1916.817316

                     E (Thermal)             CV                S
                      KCal/Mol        Cal/Mol-Kelvin    Cal/Mol-Kelvin
 Total                   13.926             20.489             84.234
 Electronic               0.000              0.000              0.000
 Translational            0.889              2.981             41.190
 Rotational               0.889              2.981             29.555
 Vibrational             12.149             14.527             13.488
 Vibration     1          0.602              1.957              3.672
 Vibration     2          0.633              1.856              2.245
 Vibration     3          0.661              1.768              1.754
 Vibration     4          0.674              1.728              1.595
 Vibration     5          0.705              1.638              1.316
 Vibration     6          0.731              1.564              1.142
 Vibration     7          0.821              1.331              0.756
 Vibration     8          0.884              1.186              0.590

 Optimization completed.
    -- Stationary point found.
 Normal termination of Gaussian 09 at Fri Mar 14 14:06:59 2025.
