 Gaussian 09, Revision D.01,
 Gaussian 09:  ES64L-G09RevD.01 24-Apr-2013

 ---------------------------------
 #m062X/6-31+G(d) OPT Freq=noraman
 ---------------------------------

 -----------------------------
 1,3,5-triazinane-2,4,6-trione
 -----------------------------
 Symbolic Z-matrix:
 Charge =  0 Multiplicity = 1

 SCF Done:  E(RM062X) =  -505.955409346     A.U. after   12 cycles
 SCF Done:  E(RM062X) =  -505.958627518     A.U. after   11 cycles
 SCF Done:  E(RM062X) =  -505.958715675     A.U. after    9 cycles
 SCF Done:  E(RM062X) =  -505.958728127     A.U. after   10 cycles
 SCF Done:  E(RM062X) =  -505.958731766     A.U. after    9 cycles
 Optimization completed.
    -- Stationary point found.
 Normal termination of Gaussian 09 at Sun Mar 16 22:15:12 2025.

 ---------------------------------------------------------------------
 #N Geom=AllCheck Guess=TCheck SCRF=Check GenChk RM062X/6-31+G(d) Freq
 ---------------------------------------------------------------------

 Structure from the checkpoint file:  "/srv/scratch/z5358697/gauss/Gau-2469787.chk"
 -----------------------------
 1,3,5-triazinane-2,4,6-trione
 -----------------------------
 Charge =  0 Multiplicity = 1

                         Standard orientation:
 ---------------------------------------------------------------------
 Center     Atomic      Atomic             Coordinates (Angstroms)
 Number     Number       Type             X           Y           Z
 ---------------------------------------------------------------------
      1          6           0       -1.431098    0.031097   -0.000846
      2          8           0       -2.637233    0.056976    0.000446
      3          7           0       -0.694209   -1.144113   -0.000106
      4          6           0        0.688586   -1.254882    0.000525
      5          8           0        1.269332   -2.312310   -0.000261
      6          7           0        1.337863   -0.029074    0.000222
      7          6           0        0.742525    1.223768    0.000407
      8          8           0        1.368088    2.255260   -0.000245
      9          7           0       -0.643805    1.173302   -0.000075
     10          1           0       -1.220377   -2.010913   -0.000272
     11          1           0        2.351568   -0.051425    0.000047
     12          1           0       -1.131710    2.062237   -0.000103
 ---------------------------------------------------------------------

 SCF Done:  E(RM062X) =  -505.958731766     A.U. after    1 cycles

 The electronic state is 1-A.
 Alpha  occ. eigenvalues --  -19.66620 -19.66620 -19.66618 -14.85332 -14.85329
 Alpha  occ. eigenvalues --  -14.85327 -10.74567 -10.74565 -10.74563  -1.25855
 Alpha  occ. eigenvalues --   -1.22423  -1.22421  -1.12617  -1.06846  -1.06841
 Alpha  occ. eigenvalues --   -0.80689  -0.80683  -0.75243  -0.71974  -0.61881
 Alpha  occ. eigenvalues --   -0.61006  -0.61003  -0.57951  -0.55094  -0.55093
 Alpha  occ. eigenvalues --   -0.53705  -0.53703  -0.42066  -0.42065  -0.39012
 Alpha  occ. eigenvalues --   -0.39011  -0.38748  -0.37526
 Alpha virt. eigenvalues --   -0.00634   0.00786   0.00789   0.01904   0.01905
 Alpha virt. eigenvalues --    0.02493   0.05619   0.05620   0.05969   0.07821
 Alpha virt. eigenvalues --    0.07835   0.09698   0.09823   0.11354   0.11373

 Mulliken charges:
               1
     1  C    0.771754
     2  O   -0.483321
     3  N   -0.769654
     4  C    0.771098
     5  O   -0.483022
     6  N   -0.769540
     7  C    0.771323
     8  O   -0.483144
     9  N   -0.769681
    10  H    0.481370
    11  H    0.481457
    12  H    0.481359
 Sum of Mulliken charges =   0.00000

 Dipole moment (field-independent basis, Debye):
    X=              0.0000    Y=             -0.0005    Z=             -0.0003  Tot=              0.0005
 Quadrupole moment (field-independent basis, Debye-Ang):
   XX=            -58.1428   YY=            -58.1391   ZZ=            -50.1436
   XY=             -0.0017   XZ=              0.0075   YZ=              0.0001

  Exact polarizability:  76.066  -0.009  76.089  -0.005   0.000  34.257
 Approx polarizability:  89.098  -0.002  89.096  -0.014   0.001  43.284

                      1                      2                      3
                      A                      A                      A
 Frequencies --    113.0666               147.0597               150.9050
 Red. masses --     14.7050                 8.0946                 8.0691
 Frc consts  --      0.1108                 0.1031                 0.1083
 IR Inten    --      0.2709                 0.0043                 0.0001

                      4                      5                      6
                      A                      A                      A
 Frequencies --    398.7027               399.3726               520.5318
 Red. masses --     13.0890                13.1398                 8.9317
 Frc consts  --      1.2259                 1.2348                 1.4259
 IR Inten    --     28.7697                27.8017                25.8350

                      7                      8                      9
                      A                      A                      A
 Frequencies --    521.4272               565.5481               571.8295
 Red. masses --      8.8809                 1.1064                 1.1072
 Frc consts  --      1.4226                 0.2085                 0.2133
 IR Inten    --     25.5793                 0.5452                 0.5715

                     10                     11                     12
                      A                      A                      A
 Frequencies --    636.8767               638.3630               682.0296
 Red. masses --      1.0468                 4.6324                13.9219
 Frc consts  --      0.2502                 1.1122                 3.8155
 IR Inten    --    344.1522                 0.0048                 0.0027

                     13                     14                     15
                      A                      A                      A
 Frequencies --    723.9993               749.2294               751.4544
 Red. masses --     10.7364                11.8337                11.9163
 Frc consts  --      3.3158                 3.9138                 3.9646
 IR Inten    --     56.8399                 0.0391                 0.2795

                     16                     17                     18
                      A                      A                      A
 Frequencies --    995.4198              1051.5199              1052.6503
 Red. masses --      7.3487                 2.3090                 2.3081
 Frc consts  --      4.2901                 1.5042                 1.5069
 IR Inten    --      0.0004                17.1048                16.9445

                     19                     20                     21
                      A                      A                      A
 Frequencies --   1251.0507              1394.4463              1424.4741
 Red. masses --      5.0656                 1.4324                 1.9842
 Frc consts  --      4.6713                 1.6410                 2.3722
 IR Inten    --      0.0181                 0.0251                83.2444

                     22                     23                     24
                      A                      A                      A
 Frequencies --   1424.6223              1501.4644              1503.7087
 Red. masses --      2.0019                 6.7066                 6.9338
 Frc consts  --      2.3939                 8.9080                 9.2374
 IR Inten    --     90.7405               396.4294               401.0750

                     25                     26                     27
                      A                      A                      A
 Frequencies --   1876.2003              1877.3695              1905.7641
 Red. masses --      7.7955                 7.8210                13.0243
 Frc consts  --     16.1679                16.2411                27.8703
 IR Inten    --   1191.0116              1188.8693                 1.3786

                     28                     29                     30
                      A                      A                      A
 Frequencies --   3620.0625              3621.9422              3632.9211
 Red. masses --      1.0779                 1.0796                 1.0793
 Frc consts  --      8.3227                 8.3447                 8.3930
 IR Inten    --    187.8721                89.2560               102.6261

 - Thermochemistry -
 -------------------
 Temperature   298.150 Kelvin.  Pressure   1.00000 Atm.
 Atom     1 has atomic number  6 and mass  12.00000

 Molecular mass:   129.01744 amu.
 Principal axes and moments of inertia in atomic units:
                           1         2         3
     Eigenvalues --   892.01374 892.110801784.12440
           X            0.99966  -0.02595   0.00000
           Y            0.02595   0.99966   0.00000
           Z            0.00000   0.00000   1.00000
 This molecule is an asymmetric top.
 Rotational symmetry number  1.
 Warning -- assumption of classical behavior for rotation
           may cause significant error
 Rotational temperatures (Kelvin)      0.09710     0.09709     0.04855
 Rotational constants (GHZ):           2.02322     2.02300     1.01156
 Zero-point vibrational energy     213557.4 (Joules/Mol)
                                   51.04145 (Kcal/Mol)
 Warning -- explicit consideration of   9 degrees of freedom as
           vibrations may cause significant error
 Vibrational temperatures:    162.68   211.59   217.12   573.64   574.61
          (Kelvin)            748.93   750.22   813.70   822.73   916.32
                              918.46   981.29  1041.67  1077.97  1081.17
                             1432.19  1512.90  1514.53  1799.98  2006.29
                             2049.50  2049.71  2160.27  2163.50  2699.43
                             2701.11  2741.97  5208.46  5211.16  5226.96

 Zero-point correction=                           0.081340 (Hartree/Particle)
 Thermal correction to Energy=                    0.088404
 Thermal correction to Enthalpy=                  0.089349
 Thermal correction to Gibbs Free Energy=         0.049334
 Sum of electronic and zero-point Energies=           -505.877392
 Sum of electronic and thermal Energies=              -505.870327
 Sum of electronic and thermal Enthalpies=            -505.869383
 Sum of electronic and thermal Free Energies=         -505.909397

                     E (Thermal)             CV                S
                      KCal/Mol        Cal/Mol-Kelvin    Cal/Mol-Kelvin
 Total                   55.475             25.993             84.217
 Electronic               0.000              0.000              0.000
 Translational            0.889              2.981             40.478
 Rotational               0.889              2.981             28.742
 Vibrational             53.697             20.031             14.998
 Vibration     1          0.607              1.939              3.216
 Vibration     2          0.617              1.906              2.710
 Vibration     3          0.618              1.902              2.661
 Vibration     4          0.765              1.473              0.967
 Vibration     5          0.765              1.471              0.965
 Vibration     6          0.876              1.205              0.609
 Vibration     7          0.876              1.203              0.607
 Vibration     8          0.921              1.106              0.513
 Vibration     9          0.928              1.092              0.501

 Optimization completed.
    -- Stationary point found.
 Normal termination of Gaussian 09 at Sun Mar 16 22:19:46 2025.
