 Gaussian 09, Revision D.01,
 Gaussian 09:  ES64L-G09RevD.01 24-Apr-2013

 ---------------------------------
 #m062X/6-31+G(d) OPT Freq=noraman
 ---------------------------------

 ---------
 azetidine
 ---------
 Symbolic Z-matrix:
 Charge =  0 Multiplicity = 1

 SCF Done:  E(RM062X) =  -173.152491395     A.U. after   11 cycles
 SCF Done:  E(RM062X) =  -173.153863054     A.U. after   10 cycles
 SCF Done:  E(RM062X) =  -173.154275005     A.U. after   11 cycles
 SCF Done:  E(RM062X) =  -173.154359851     A.U. after   10 cycles
 SCF Done:  E(RM062X) =  -173.154364697     A.U. after    9 cycles
 Optimization completed.
    -- Stationary point found.

 1\1\GINC-KATANA2\FOpt\RM062X\6-31+G(d)\C3H7N1\Z5358697\15-Mar-2025\0\\
 #m062X/6-31+G(d) OPT Freq=noraman\\azetidine\\0,1\C,0.8703646487,-0.48
 73069534,-0.4522979275\C,1.7843471283,0.4681190996,-1.2469506073\N,1.0
 41403159,0.0981692211,-2.4692579268\C,0.5840287923,-1.146306549,-1.817
 3695667\H,-0.007852197,0.0247100963,-0.05339776\H,1.329194152,-1.10251
 84634,0.3234113661\H,1.7569370742,1.534064963,-1.0017242903\H,2.828328
 0983,0.1206291626,-1.2407701207\H,1.5995039933,-0.0192680657,-3.311224
 0129\H,-0.4469452909,-1.4301103327,-2.0490365712\H,1.2460904418,-2.007

 Normal termination of Gaussian 09 at Sat Mar 15 12:52:13 2025.

 ---------------------------------------------------------------------
 #N Geom=AllCheck Guess=TCheck SCRF=Check GenChk RM062X/6-31+G(d) Freq
 ---------------------------------------------------------------------

 Structure from the checkpoint file:  "/srv/scratch/z5358697/gauss/Gau-598290.chk"
 ---------
 azetidine
 ---------
 Charge =  0 Multiplicity = 1

                         Standard orientation:
 ---------------------------------------------------------------------
 Center     Atomic      Atomic             Coordinates (Angstroms)
 Number     Number       Type             X           Y           Z
 ---------------------------------------------------------------------
      1          6           0       -0.000044    1.077776   -0.086908
      2          6           0        1.045527   -0.040271    0.103952
      3          7           0        0.000040   -1.023261   -0.247547
      4          6           0       -1.045529   -0.040357    0.103956
      5          1           0       -0.000055    1.467523   -1.107029
      6          1           0       -0.000073    1.901837    0.628394
      7          1           0        1.919664   -0.049322   -0.554022
      8          1           0        1.378204   -0.102527    1.150916
      9          1           0        0.000092   -1.885470    0.291684
     10          1           0       -1.919645   -0.049467   -0.554040
     11          1           0       -1.378189   -0.102636    1.150924
 ---------------------------------------------------------------------

 SCF Done:  E(RM062X) =  -173.154364697     A.U. after    1 cycles

 The electronic state is 1-A.
 Alpha  occ. eigenvalues --  -14.74374 -10.56958 -10.56958 -10.54548  -1.03776
 Alpha  occ. eigenvalues --   -0.81198  -0.76206  -0.63962  -0.59022  -0.55478
 Alpha  occ. eigenvalues --   -0.46770  -0.44859  -0.43025  -0.39398  -0.37823
 Alpha  occ. eigenvalues --   -0.29019
 Alpha virt. eigenvalues --    0.02580   0.03312   0.03621   0.05129   0.07082
 Alpha virt. eigenvalues --    0.07408   0.08940   0.09036   0.09722   0.11880
 Alpha virt. eigenvalues --    0.15664   0.15675   0.16416   0.18720   0.20665

 Mulliken charges:
               1
     1  C   -0.460275
     2  C   -0.290973
     3  N   -0.546023
     4  C   -0.290971
     5  H    0.221421
     6  H    0.209348
     7  H    0.202041
     8  H    0.186497
     9  H    0.380393
    10  H    0.202043
    11  H    0.186499
 Sum of Mulliken charges =   0.00000

 Dipole moment (field-independent basis, Debye):
    X=              0.0000    Y=              0.4181    Z=              1.3858  Tot=              1.4475
 Quadrupole moment (field-independent basis, Debye-Ang):
   XX=            -25.5009   YY=            -25.5167   ZZ=            -27.1413
   XY=             -0.0001   XZ=              0.0001   YZ=             -2.5095

  Exact polarizability:  43.758   0.000  41.431   0.000   0.338  38.549
 Approx polarizability:  46.304   0.000  44.880   0.000   0.302  44.100

                      1                      2                      3
                      A                      A                      A
 Frequencies --    236.0656               657.6516               775.2654
 Red. masses --      1.6546                 1.7735                 1.2988
 Frc consts  --      0.0543                 0.4519                 0.4599
 IR Inten    --      3.8708                42.3176                61.7118

                      4                      5                      6
                      A                      A                      A
 Frequencies --    844.6334               948.6170               957.7509
 Red. masses --      1.2020                 2.1495                 1.8334
 Frc consts  --      0.5052                 1.1396                 0.9908
 IR Inten    --      0.1569                23.6443                 0.9489

                      7                      8                      9
                      A                      A                      A
 Frequencies --    988.3277              1055.1832              1078.6470
 Red. masses --      1.6664                 2.4520                 3.8715
 Frc consts  --      0.9590                 1.6085                 2.6539
 IR Inten    --      3.8852                 7.4084                 6.1559

                     10                     11                     12
                      A                      A                      A
 Frequencies --   1134.6288              1184.1327              1206.2734
 Red. masses --      1.3137                 1.8143                 1.1705
 Frc consts  --      0.9965                 1.4988                 1.0035
 IR Inten    --     15.1222                10.3144                 0.0027

                     13                     14                     15
                      A                      A                      A
 Frequencies --   1235.1618              1278.6720              1292.1762
 Red. masses --      1.2115                 1.4059                 1.2761
 Frc consts  --      1.0889                 1.3543                 1.2554
 IR Inten    --      0.2628                 8.3574                 6.1301

                     16                     17                     18
                      A                      A                      A
 Frequencies --   1372.3723              1394.7513              1506.7368
 Red. masses --      1.5284                 1.3819                 1.1034
 Frc consts  --      1.6961                 1.5838                 1.4760
 IR Inten    --      0.1130                28.6335                 2.9858

                     19                     20                     21
                      A                      A                      A
 Frequencies --   1529.3106              1559.4828              3041.4165
 Red. masses --      1.0876                 1.1310                 1.0652
 Frc consts  --      1.4987                 1.6206                 5.8056
 IR Inten    --      1.8566                 1.6609                84.8158

                     22                     23                     24
                      A                      A                      A
 Frequencies --   3044.2321              3115.0232              3126.0583
 Red. masses --      1.0683                 1.0662                 1.0981
 Frc consts  --      5.8333                 6.0957                 6.3226
 IR Inten    --     76.0345                19.1629                55.8257

                     25                     26                     27
                      A                      A                      A
 Frequencies --   3127.9021              3177.8001              3550.3895
 Red. masses --      1.0915                 1.1102                 1.0764
 Frc consts  --      6.2916                 6.6053                 7.9943
 IR Inten    --     32.4759                29.2388                 0.5831

 - Thermochemistry -
 -------------------
 Temperature   298.150 Kelvin.  Pressure   1.00000 Atm.
 Atom     1 has atomic number  6 and mass  12.00000

 Molecular mass:    57.05785 amu.
 Principal axes and moments of inertia in atomic units:
                           1         2         3
     Eigenvalues --   155.87465 157.98020 269.87451
           X           -0.00006   1.00000   0.00000
           Y            0.99937   0.00006  -0.03548
           Z            0.03548   0.00000   0.99937
 This molecule is an asymmetric top.
 Rotational symmetry number  1.
 Rotational temperatures (Kelvin)      0.55566     0.54826     0.32094
 Rotational constants (GHZ):          11.57816    11.42384     6.68733
 Zero-point vibrational energy     265682.6 (Joules/Mol)
                                   63.49967 (Kcal/Mol)
 Warning -- explicit consideration of   1 degrees of freedom as
           vibrations may cause significant error
 Vibrational temperatures:    339.65   946.21  1115.43  1215.24  1364.85
          (Kelvin)           1377.99  1421.98  1518.17  1551.93  1632.48
                             1703.70  1735.56  1777.12  1839.72  1859.15
                             1974.54  2006.73  2167.86  2200.33  2243.75
                             4375.91  4379.97  4481.82  4497.70  4500.35
                             4572.14  5108.21

 Zero-point correction=                           0.101193 (Hartree/Particle)
 Thermal correction to Energy=                    0.105122
 Thermal correction to Enthalpy=                  0.106066
 Thermal correction to Gibbs Free Energy=         0.075268
 Sum of electronic and zero-point Energies=           -173.053172
 Sum of electronic and thermal Energies=              -173.049243
 Sum of electronic and thermal Enthalpies=            -173.048298
 Sum of electronic and thermal Free Energies=         -173.079097

                     E (Thermal)             CV                S
                      KCal/Mol        Cal/Mol-Kelvin    Cal/Mol-Kelvin
 Total                   65.965             13.392             64.821
 Electronic               0.000              0.000              0.000
 Translational            0.889              2.981             38.046
 Rotational               0.889              2.981             23.412
 Vibrational             64.188              7.431              3.364
 Vibration     1          0.655              1.786              1.832

 1\1\GINC-KATANA2\Freq\RM062X\6-31+G(d)\C3H7N1\Z5358697\15-Mar-2025\0\\
 #N Geom=AllCheck Guess=TCheck SCRF=Check GenChk RM062X/6-31+G(d) Freq\
 \azetidine\\0,1\C,0.8703646487,-0.4873069534,-0.4522979275\C,1.7843471
 283,0.4681190996,-1.2469506073\N,1.041403159,0.0981692211,-2.469257926
 8\C,0.5840287923,-1.146306549,-1.8173695667\H,-0.007852197,0.024710096
 3,-0.05339776\H,1.329194152,-1.1025184634,0.3234113661\H,1.7569370742,
 1.534064963,-1.0017242903\H,2.8283280983,0.1206291626,-1.2407701207\H,
 1.5995039933,-0.0192680657,-3.3112240129\H,-0.4469452909,-1.4301103327

 Normal termination of Gaussian 09 at Sat Mar 15 12:53:23 2025.
