 Gaussian 09, Revision D.01,
 Gaussian 09:  ES64L-G09RevD.01 24-Apr-2013

 ---------------------------------
 #m062X/6-31+G(d) OPT Freq=noraman
 ---------------------------------

 -------------------------------
 (2S)-1,1,1-trifluoropropan-2-ol
 -------------------------------
 Symbolic Z-matrix:
 Charge =  0 Multiplicity = 1

 SCF Done:  E(RM062X) =  -491.918037936     A.U. after   12 cycles
 SCF Done:  E(RM062X) =  -491.920528185     A.U. after   11 cycles
 SCF Done:  E(RM062X) =  -491.920728569     A.U. after    9 cycles
 SCF Done:  E(RM062X) =  -491.920742629     A.U. after    9 cycles
 SCF Done:  E(RM062X) =  -491.920745307     A.U. after    8 cycles
 SCF Done:  E(RM062X) =  -491.920746165     A.U. after    8 cycles
 SCF Done:  E(RM062X) =  -491.920747360     A.U. after    9 cycles
 SCF Done:  E(RM062X) =  -491.920748501     A.U. after    9 cycles
 SCF Done:  E(RM062X) =  -491.920750665     A.U. after    9 cycles
 SCF Done:  E(RM062X) =  -491.920751790     A.U. after    9 cycles
 SCF Done:  E(RM062X) =  -491.920752009     A.U. after    9 cycles
 SCF Done:  E(RM062X) =  -491.920751904     A.U. after    8 cycles
 Optimization completed.
    -- Stationary point found.
 Normal termination of Gaussian 09 at Thu Mar 20 23:59:14 2025.

 ---------------------------------------------------------------------
 #N Geom=AllCheck Guess=TCheck SCRF=Check GenChk RM062X/6-31+G(d) Freq
 ---------------------------------------------------------------------

 Structure from the checkpoint file:  "/srv/scratch/z5358697/gauss/Gau-3812188.chk"
 -------------------------------
 (2S)-1,1,1-trifluoropropan-2-ol
 -------------------------------
 Charge =  0 Multiplicity = 1

                         Standard orientation:
 ---------------------------------------------------------------------
 Center     Atomic      Atomic             Coordinates (Angstroms)
 Number     Number       Type             X           Y           Z
 ---------------------------------------------------------------------
      1          6           0       -1.645287    1.080167    0.036576
      2          6           0       -0.820239   -0.101390   -0.452801
      3          1           0       -0.794412   -0.129768   -1.551878
      4          6           0        0.630727    0.024571   -0.012781
      5          9           0        0.751877    0.096503    1.319098
      6          9           0        1.369014   -1.008037   -0.435251
      7          9           0        1.173687    1.145470   -0.528596
      8          8           0       -1.259867   -1.331262    0.075759
      9          1           0       -1.646107    1.109641    1.129412
     10          1           0       -2.677794    0.976216   -0.312147
     11          1           0       -1.251919    2.023975   -0.350248
     12          1           0       -2.193241   -1.455473   -0.144430
 ---------------------------------------------------------------------

 SCF Done:  E(RM062X) =  -491.920751904     A.U. after    1 cycles

 The electronic state is 1-A.
 Alpha  occ. eigenvalues --  -25.30217 -25.29937 -25.29787 -19.67426 -10.80647
 Alpha  occ. eigenvalues --  -10.63956 -10.56544  -1.46699  -1.37433  -1.37305
 Alpha  occ. eigenvalues --   -1.18163  -0.90799  -0.81928  -0.75013  -0.69602
 Alpha  occ. eigenvalues --   -0.69005  -0.64505  -0.61500  -0.57448  -0.56857
 Alpha  occ. eigenvalues --   -0.54459  -0.52944  -0.52167  -0.51163  -0.50981
 Alpha  occ. eigenvalues --   -0.47631  -0.46087  -0.42580  -0.37965
 Alpha virt. eigenvalues --    0.00443   0.03349   0.03863   0.04755   0.07219
 Alpha virt. eigenvalues --    0.07343   0.07639   0.08025   0.09893   0.11189
 Alpha virt. eigenvalues --    0.12750   0.14641   0.16768   0.19183   0.19755

 Mulliken charges:
               1
     1  C   -0.695162
     2  C   -0.116010
     3  H    0.218206
     4  C    0.982612
     5  F   -0.311320
     6  F   -0.304968
     7  F   -0.319721
     8  O   -0.656511
     9  H    0.255120
    10  H    0.211158
    11  H    0.244491
    12  H    0.492105
 Sum of Mulliken charges =   0.00000

 Dipole moment (field-independent basis, Debye):
    X=             -3.4334    Y=              0.9859    Z=             -1.3588  Tot=              3.8219
 Quadrupole moment (field-independent basis, Debye-Ang):
   XX=            -34.8599   YY=            -42.0397   ZZ=            -40.2992
   XY=              0.8258   XZ=              1.8540   YZ=              1.0235

  Exact polarizability:  43.402  -0.246  42.910  -0.568  -0.378  39.265
 Approx polarizability:  45.321   0.667  47.441  -0.729  -1.087  46.005

                      1                      2                      3
                      A                      A                      A
 Frequencies --     81.1412               184.6298               223.4875
 Red. masses --      5.1409                 1.0602                 2.1761
 Frc consts  --      0.0199                 0.0213                 0.0640
 IR Inten    --      7.1081               136.3206                 1.1992

                      4                      5                      6
                      A                      A                      A
 Frequencies --    230.5438               264.5835               348.7419
 Red. masses --      1.6286                 4.7750                 4.6121
 Frc consts  --      0.0510                 0.1969                 0.3305
 IR Inten    --      0.8138                 4.8742                 0.6193

                      7                      8                      9
                      A                      A                      A
 Frequencies --    421.2875               486.4442               550.6624
 Red. masses --      8.7686                 4.6827                 6.1221
 Frc consts  --      0.9169                 0.6528                 1.0938
 IR Inten    --      1.6627                 9.9926                11.5295

                     10                     11                     12
                      A                      A                      A
 Frequencies --    583.8221               668.7149               818.4515
 Red. masses --     10.7861                 4.3559                 4.7489
 Frc consts  --      2.1661                 1.1477                 1.8743
 IR Inten    --      0.9178                21.6828                 0.8661

                     13                     14                     15
                      A                      A                      A
 Frequencies --    941.1954              1034.7265              1134.3879
 Red. masses --      2.0506                 1.4294                 2.2634
 Frc consts  --      1.0703                 0.9017                 1.7161
 IR Inten    --     17.2744                27.7045                58.7964

                     16                     17                     18
                      A                      A                      A
 Frequencies --   1185.4275              1194.6551              1259.3456
 Red. masses --      2.0579                 3.0037                 6.7067
 Frc consts  --      1.7038                 2.5258                 6.2668
 IR Inten    --    256.7531                64.4126               278.4159

                     19                     20                     21
                      A                      A                      A
 Frequencies --   1269.1794              1339.8442              1379.2036
 Red. masses --      2.5313                 2.5788                 1.3336
 Frc consts  --      2.4024                 2.7276                 1.4947
 IR Inten    --     59.3314               137.2903                10.8235

                     22                     23                     24
                      A                      A                      A
 Frequencies --   1435.7862              1475.5049              1515.6940
 Red. masses --      1.3241                 1.6576                 1.0439
 Frc consts  --      1.6083                 2.1262                 1.4130
 IR Inten    --     12.5310                14.1577                 3.5019

                     25                     26                     27
                      A                      A                      A
 Frequencies --   1535.9657              3074.3777              3085.0670
 Red. masses --      1.3110                 1.0847                 1.0375
 Frc consts  --      1.8223                 6.0404                 5.8179
 IR Inten    --     34.7401                28.7845                10.6100

                     28                     29                     30
                      A                      A                      A
 Frequencies --   3161.1332              3186.0300              3836.2379
 Red. masses --      1.1008                 1.1035                 1.0670
 Frc consts  --      6.4811                 6.5995                 9.2515
 IR Inten    --     11.2605                 6.5780                51.3466

 - Thermochemistry -
 -------------------
 Temperature   298.150 Kelvin.  Pressure   1.00000 Atm.
 Atom     1 has atomic number  6 and mass  12.00000

 Molecular mass:   114.02925 amu.
 Principal axes and moments of inertia in atomic units:
                           1         2         3
     Eigenvalues --   512.58361 741.85438 908.43800
           X            0.99805  -0.06133   0.01169
           Y            0.06118   0.99804   0.01297
           Z           -0.01246  -0.01223   0.99985
 This molecule is an asymmetric top.
 Rotational symmetry number  1.
 Warning -- assumption of classical behavior for rotation
           may cause significant error
 Rotational temperatures (Kelvin)      0.16897     0.11675     0.09534
 Rotational constants (GHZ):           3.52087     2.43274     1.98664
 Zero-point vibrational energy     226729.9 (Joules/Mol)
                                   54.18974 (Kcal/Mol)
 Warning -- explicit consideration of  10 degrees of freedom as
           vibrations may cause significant error
 Vibrational temperatures:    116.74   265.64   321.55   331.70   380.68
          (Kelvin)            501.76   606.14   699.88   792.28   839.99
                              962.13  1177.57  1354.17  1488.74  1632.13
                             1705.56  1718.84  1811.92  1826.06  1927.73
                             1984.36  2065.77  2122.92  2180.74  2209.91
                             4423.34  4438.72  4548.16  4583.98  5519.48

 Zero-point correction=                           0.086357 (Hartree/Particle)
 Thermal correction to Energy=                    0.093694
 Thermal correction to Enthalpy=                  0.094639
 Thermal correction to Gibbs Free Energy=         0.054806
 Sum of electronic and zero-point Energies=           -491.834395
 Sum of electronic and thermal Energies=              -491.827057
 Sum of electronic and thermal Enthalpies=            -491.826113
 Sum of electronic and thermal Free Energies=         -491.865946

                     E (Thermal)             CV                S
                      KCal/Mol        Cal/Mol-Kelvin    Cal/Mol-Kelvin
 Total                   58.794             25.470             83.835
 Electronic               0.000              0.000              0.000
 Translational            0.889              2.981             40.109
 Rotational               0.889              2.981             27.337
 Vibrational             57.017             19.508             16.388
 Vibration     1          0.600              1.962              3.863
 Vibration     2          0.631              1.861              2.281
 Vibration     3          0.649              1.805              1.931
 Vibration     4          0.652              1.794              1.875
 Vibration     5          0.671              1.738              1.631
 Vibration     6          0.726              1.578              1.172
 Vibration     7          0.784              1.424              0.888
 Vibration     8          0.842              1.280              0.693
 Vibration     9          0.906              1.138              0.543
 Vibration    10          0.941              1.066              0.478

 Optimization completed.
    -- Stationary point found.
 Normal termination of Gaussian 09 at Fri Mar 21 00:02:11 2025.
