 Gaussian 09, Revision D.01,
 Gaussian 09:  ES64L-G09RevD.01 24-Apr-2013

 ---------------------------------
 #m062X/6-31+G(d) OPT Freq=noraman
 ---------------------------------

 ----------
 piperidine
 ----------
 Symbolic Z-matrix:
 Charge =  0 Multiplicity = 1

 SCF Done:  E(RM062X) =  -251.781944082     A.U. after   12 cycles
 SCF Done:  E(RM062X) =  -251.783360692     A.U. after   11 cycles
 SCF Done:  E(RM062X) =  -251.783559546     A.U. after   10 cycles
 SCF Done:  E(RM062X) =  -251.783582250     A.U. after    9 cycles
 SCF Done:  E(RM062X) =  -251.783583358     A.U. after    8 cycles
 Optimization completed.
    -- Stationary point found.
 Normal termination of Gaussian 09 at Wed Mar 19 11:38:13 2025.

 ---------------------------------------------------------------------
 #N Geom=AllCheck Guess=TCheck SCRF=Check GenChk RM062X/6-31+G(d) Freq
 ---------------------------------------------------------------------

 Structure from the checkpoint file:  "/srv/scratch/z5358697/gauss/Gau-1281771.chk"
 ----------
 piperidine
 ----------
 Charge =  0 Multiplicity = 1

                         Standard orientation:
 ---------------------------------------------------------------------
 Center     Atomic      Atomic             Coordinates (Angstroms)
 Number     Number       Type             X           Y           Z
 ---------------------------------------------------------------------
      1          6           0       -1.452547   -0.001316    0.234477
      2          6           0       -0.714535    1.257658   -0.229586
      3          6           0        0.747624    1.209621    0.209142
      4          7           0        1.374780    0.001224   -0.318918
      5          6           0        0.749782   -1.208265    0.209179
      6          6           0       -0.712237   -1.258930   -0.229622
      7          1           0       -2.484203   -0.002257   -0.135314
      8          1           0       -1.507843   -0.001381    1.333127
      9          1           0       -0.747412    1.321832   -1.324554
     10          1           0       -1.194377    2.157526    0.172477
     11          1           0        1.291289    2.079818   -0.172885
     12          1           0        0.789820    1.245785    1.316024
     13          1           0        2.369151    0.002112   -0.109047
     14          1           0        1.295021   -2.077506   -0.172784
     15          1           0        0.791973   -1.244303    1.316064
     16          1           0       -0.744939   -1.323113   -1.324595
     17          1           0       -1.190461   -2.159689    0.172375
 ---------------------------------------------------------------------

 SCF Done:  E(RM062X) =  -251.783583358     A.U. after    1 cycles

 The electronic state is 1-A.
 Alpha  occ. eigenvalues --  -14.74406 -10.56473 -10.56471 -10.53911 -10.53696
 Alpha  occ. eigenvalues --  -10.53692  -1.01650  -0.88152  -0.84510  -0.71974
 Alpha  occ. eigenvalues --   -0.70163  -0.63052  -0.58417  -0.52160  -0.51753
 Alpha  occ. eigenvalues --   -0.49113  -0.47190  -0.45972  -0.44445  -0.40456
 Alpha  occ. eigenvalues --   -0.38585  -0.36727  -0.36629  -0.28508
 Alpha virt. eigenvalues --    0.01993   0.03208   0.03789   0.04299   0.05216
 Alpha virt. eigenvalues --    0.05705   0.07623   0.08020   0.08715   0.10397
 Alpha virt. eigenvalues --    0.10427   0.11709   0.12526   0.12584   0.12645

 Mulliken charges:
               1
     1  C   -0.449085
     2  C   -0.358017
     3  C   -0.367684
     4  N   -0.529624
     5  C   -0.367671
     6  C   -0.358008
     7  H    0.209077
     8  H    0.210096
     9  H    0.221584
    10  H    0.204454
    11  H    0.199986
    12  H    0.187409
    13  H    0.384055
    14  H    0.199984
    15  H    0.187406
    16  H    0.221585
    17  H    0.204452
 Sum of Mulliken charges =   0.00000

 Dipole moment (field-independent basis, Debye):
    X=              0.2120    Y=              0.0002    Z=              0.9226  Tot=              0.9467
 Quadrupole moment (field-independent basis, Debye-Ang):
   XX=            -37.4129   YY=            -38.4358   ZZ=            -41.8975
   XY=              0.0009   XZ=              1.6543   YZ=              0.0014

  Exact polarizability:  64.714  -0.002  67.353  -0.448  -0.001  60.199
 Approx polarizability:  70.221  -0.002  71.877  -1.007  -0.001  73.425

                      1                      2                      3
                      A                      A                      A
 Frequencies --    251.8858               254.1129               409.5845
 Red. masses --      1.9175                 1.7693                 1.7194
 Frc consts  --      0.0717                 0.0673                 0.1699
 IR Inten    --      1.9860                 0.4004                 1.2421

                      4                      5                      6
                      A                      A                      A
 Frequencies --    435.4575               450.6795               549.6085
 Red. masses --      2.9929                 2.9420                 1.3878
 Frc consts  --      0.3344                 0.3521                 0.2470
 IR Inten    --      8.0984                 0.8016                21.2603

                      7                      8                      9
                      A                      A                      A
 Frequencies --    784.6425               825.4589               843.7047
 Red. masses --      1.4626                 1.4500                 3.2993
 Frc consts  --      0.5305                 0.5821                 1.3837
 IR Inten    --     87.6669                 0.3453                 0.2036

                     10                     11                     12
                      A                      A                      A
 Frequencies --    879.8156               902.5428               924.5050
 Red. masses --      1.4076                 2.2112                 2.0351
 Frc consts  --      0.6420                 1.0612                 1.0248
 IR Inten    --     20.2646                 0.2573                 2.0498

                     13                     14                     15
                      A                      A                      A
 Frequencies --    982.0701              1065.3466              1075.2993
 Red. masses --      1.2878                 2.4811                 1.6048
 Frc consts  --      0.7318                 1.6591                 1.0933
 IR Inten    --      0.6542                12.2504                 2.1930

                     16                     17                     18
                      A                      A                      A
 Frequencies --   1080.5624              1169.0437              1175.6283
 Red. masses --      1.4959                 1.7470                 2.2560
 Frc consts  --      1.0291                 1.4067                 1.8371
 IR Inten    --      2.4469                 8.0454                 6.3681

                     19                     20                     21
                      A                      A                      A
 Frequencies --   1178.3089              1208.6012              1295.9931
 Red. masses --      1.2390                 1.6330                 1.2477
 Frc consts  --      1.0135                 1.4054                 1.2347
 IR Inten    --      4.4152                10.6493                 3.1882

                     22                     23                     24
                      A                      A                      A
 Frequencies --   1304.8159              1329.6782              1359.7929
 Red. masses --      1.1781                 1.2217                 1.3189
 Frc consts  --      1.1817                 1.2726                 1.4368
 IR Inten    --      2.1783                 1.2444                 6.9311

                     25                     26                     27
                      A                      A                      A
 Frequencies --   1379.5337              1394.9602              1396.3961
 Red. masses --      1.4753                 1.5182                 1.5738
 Frc consts  --      1.6542                 1.7407                 1.8081
 IR Inten    --     28.4243                 0.1612                 0.4201

                     28                     29                     30
                      A                      A                      A
 Frequencies --   1441.7737              1491.3056              1501.0775
 Red. masses --      1.5758                 1.1193                 1.1660
 Frc consts  --      1.9299                 1.4667                 1.5479
 IR Inten    --      3.9724                 8.0498                 2.0339

                     31                     32                     33
                      A                      A                      A
 Frequencies --   1502.4329              1512.7326              1519.1565
 Red. masses --      1.0840                 1.1126                 1.2117
 Frc consts  --      1.4417                 1.5000                 1.6476
 IR Inten    --      8.2472                 8.3597                 0.8252

                     34                     35                     36
                      A                      A                      A
 Frequencies --   1529.2198              2962.2394              2964.5339
 Red. masses --      1.1025                 1.0733                 1.0717
 Frc consts  --      1.5190                 5.5488                 5.5495
 IR Inten    --      2.2136                30.3988               153.0407

                     37                     38                     39
                      A                      A                      A
 Frequencies --   3048.7593              3070.8463              3070.9149
 Red. masses --      1.0667                 1.0617                 1.0599
 Frc consts  --      5.8420                 5.8986                 5.8892
 IR Inten    --     31.7789                17.2751                33.7047

                     40                     41                     42
                      A                      A                      A
 Frequencies --   3105.8447              3115.7842              3117.4743
 Red. masses --      1.0955                 1.0941                 1.0905
 Frc consts  --      6.2261                 6.2583                 6.2443
 IR Inten    --     47.9211                82.2202                 8.7224

                     43                     44                     45
                      A                      A                      A
 Frequencies --   3118.4094              3121.7723              3555.4431
 Red. masses --      1.0998                 1.1044                 1.0753
 Frc consts  --      6.3011                 6.3415                 8.0090
 IR Inten    --      2.4741                77.0525                 0.4627

 - Thermochemistry -
 -------------------
 Temperature   298.150 Kelvin.  Pressure   1.00000 Atm.
 Atom     1 has atomic number  6 and mass  12.00000

 Molecular mass:    85.08915 amu.
 Principal axes and moments of inertia in atomic units:
                           1         2         3
     Eigenvalues --   396.97699 405.58085 707.30100
           X            0.99990  -0.00073   0.01430
           Y            0.00073   1.00000   0.00001
           Z           -0.01430   0.00000   0.99990
 This molecule is an asymmetric top.
 Rotational symmetry number  1.
 Rotational temperatures (Kelvin)      0.21818     0.21355     0.12246
 Rotational constants (GHZ):           4.54621     4.44977     2.55159
 Zero-point vibrational energy     422627.2 (Joules/Mol)
                                  101.01032 (Kcal/Mol)
 Warning -- explicit consideration of   6 degrees of freedom as
           vibrations may cause significant error
 Vibrational temperatures:    362.41   365.61   589.30   626.53   648.43
          (Kelvin)            790.76  1128.92  1187.65  1213.90  1265.86
                             1298.56  1330.15  1412.98  1532.79  1547.11
                             1554.69  1681.99  1691.46  1695.32  1738.91
                             1864.64  1877.34  1913.11  1956.44  1984.84
                             2007.03  2009.10  2074.39  2145.65  2159.71
                             2161.66  2176.48  2185.72  2200.20  4262.00
                             4265.30  4386.48  4418.26  4418.36  4468.61
                             4482.91  4485.34  4486.69  4491.53  5115.48

 Zero-point correction=                           0.160970 (Hartree/Particle)
 Thermal correction to Energy=                    0.166472
 Thermal correction to Enthalpy=                  0.167417
 Thermal correction to Gibbs Free Energy=         0.132388
 Sum of electronic and zero-point Energies=           -251.622613
 Sum of electronic and thermal Energies=              -251.617111
 Sum of electronic and thermal Enthalpies=            -251.616167
 Sum of electronic and thermal Free Energies=         -251.651195

                     E (Thermal)             CV                S
                      KCal/Mol        Cal/Mol-Kelvin    Cal/Mol-Kelvin
 Total                  104.463             21.760             73.723
 Electronic               0.000              0.000              0.000
 Translational            0.889              2.981             39.237
 Rotational               0.889              2.981             26.235
 Vibrational            102.686             15.799              8.251
 Vibration     1          0.664              1.760              1.717
 Vibration     2          0.665              1.756              1.702
 Vibration     3          0.774              1.449              0.928
 Vibration     4          0.796              1.393              0.841
 Vibration     5          0.809              1.359              0.794
 Vibration     6          0.905              1.141              0.545

 Optimization completed.
    -- Stationary point found.
 Normal termination of Gaussian 09 at Wed Mar 19 11:42:48 2025.
