 Gaussian 09, Revision D.01,
 Gaussian 09:  ES64L-G09RevD.01 24-Apr-2013

 ---------------------------------
 #m062X/6-31+G(d) OPT Freq=noraman
 ---------------------------------

 -----------
 pyrrolidine
 -----------
 Symbolic Z-matrix:
 Charge =  0 Multiplicity = 1

 SCF Done:  E(RM062X) =  -212.477805841     A.U. after   12 cycles
 SCF Done:  E(RM062X) =  -212.479531908     A.U. after   11 cycles
 SCF Done:  E(RM062X) =  -212.479711786     A.U. after   10 cycles
 SCF Done:  E(RM062X) =  -212.479756065     A.U. after   10 cycles
 SCF Done:  E(RM062X) =  -212.479757300     A.U. after    8 cycles
 Optimization completed.
    -- Stationary point found.

 1\1\GINC-KATANA3\FOpt\RM062X\6-31+G(d)\C4H9N1\Z5358697\17-Mar-2025\0\\
 #m062X/6-31+G(d) OPT Freq=noraman\\pyrrolidine\\0,1\C,0.2713879668,0.4
 739628855,1.174130985\C,0.0103968616,1.288874102,-0.1205398448\C,-0.44
 26328077,0.2362018868,-1.1461132241\N,0.2043562307,-0.9812281375,-0.66
 06053672\C,-0.0468817333,-0.9784593197,0.7794263334\H,-0.3461619672,0.
 8080670053,2.0121912556\H,1.3181949946,0.5623252532,1.4763409098\H,-0.
 7439182764,2.0680355023,0.0181548217\H,0.9305390203,1.7726336421,-0.45
 86792167\H,-1.5447649284,0.1555134603,-1.1362974252\H,-0.1240023376,0.

 Normal termination of Gaussian 09 at Mon Mar 17 15:45:31 2025.

 ---------------------------------------------------------------------
 #N Geom=AllCheck Guess=TCheck SCRF=Check GenChk RM062X/6-31+G(d) Freq
 ---------------------------------------------------------------------

 Structure from the checkpoint file:  "/srv/scratch/z5358697/gauss/Gau-2726092.chk"
 -----------
 pyrrolidine
 -----------
 Charge =  0 Multiplicity = 1

                         Standard orientation:
 ---------------------------------------------------------------------
 Center     Atomic      Atomic             Coordinates (Angstroms)
 Number     Number       Type             X           Y           Z
 ---------------------------------------------------------------------
      1          6           0        0.768438    1.031363   -0.056846
      2          6           0       -0.783407    1.019725   -0.060149
      3          6           0       -1.151881   -0.454329    0.177649
      4          7           0        0.007744   -1.163641   -0.359563
      5          6           0        1.158847   -0.438462    0.175129
      6          1           0        1.181763    1.684646    0.716279
      7          1           0        1.149690    1.375474   -1.021822
      8          1           0       -1.210234    1.671283    0.707062
      9          1           0       -1.165222    1.351851   -1.029135
     10          1           0       -1.287622   -0.635412    1.259354
     11          1           0       -2.066922   -0.757639   -0.338956
     12          1           0        0.014775   -2.146838   -0.100478
     13          1           0        1.301391   -0.620664    1.255707
     14          1           0        2.076197   -0.726999   -0.345777
 ---------------------------------------------------------------------

 SCF Done:  E(RM062X) =  -212.479757300     A.U. after    1 cycles

 The electronic state is 1-A.
 Alpha  occ. eigenvalues --  -14.74347 -10.56443 -10.56441 -10.54022 -10.53990
 Alpha  occ. eigenvalues --   -1.02377  -0.85289  -0.81300  -0.67361  -0.65331
 Alpha  occ. eigenvalues --   -0.58621  -0.55639  -0.49703  -0.46465  -0.43149
 Alpha  occ. eigenvalues --   -0.42997  -0.40123  -0.39701  -0.37790  -0.28637
 Alpha virt. eigenvalues --    0.02112   0.04036   0.04151   0.04861   0.05443
 Alpha virt. eigenvalues --    0.06677   0.08022   0.08784   0.08832   0.11128
 Alpha virt. eigenvalues --    0.12062   0.12399   0.14548   0.14967   0.16105

 Mulliken charges:
               1
     1  C   -0.401815
     2  C   -0.400281
     3  C   -0.347704
     4  N   -0.534565
     5  C   -0.347447
     6  H    0.210725
     7  H    0.220126
     8  H    0.210651
     9  H    0.220233
    10  H    0.186744
    11  H    0.205195
    12  H    0.386192
    13  H    0.186729
    14  H    0.205217
 Sum of Mulliken charges =   0.00000

 Dipole moment (field-independent basis, Debye):
    X=              0.0014    Y=             -0.0563    Z=              1.0947  Tot=              1.0961
 Quadrupole moment (field-independent basis, Debye-Ang):
   XX=            -31.8974   YY=            -31.0509   ZZ=            -34.7594
   XY=             -0.0068   XZ=              0.0062   YZ=             -1.5567

  Exact polarizability:  55.405   0.020  52.470   0.000   0.027  49.109
 Approx polarizability:  58.995   0.016  56.692  -0.004   0.579  58.089

                      1                      2                      3
                      A                      A                      A
 Frequencies --     83.1768               307.8727               593.6830
 Red. masses --      1.5877                 1.8437                 1.9746
 Frc consts  --      0.0065                 0.1030                 0.4100
 IR Inten    --      0.1279                 4.4802                42.3873

                      4                      5                      6
                      A                      A                      A
 Frequencies --    634.9631               778.7982               878.6132
 Red. masses --      2.6937                 1.2223                 1.5144
 Frc consts  --      0.6399                 0.4368                 0.6888
 IR Inten    --      0.7574                26.1736                 2.7296

                      7                      8                      9
                      A                      A                      A
 Frequencies --    901.1032               922.3628               952.4062
 Red. masses --      1.9420                 2.7070                 2.1428
 Frc consts  --      0.9291                 1.3569                 1.1452
 IR Inten    --     73.3348                 6.5742                 0.4394

                     10                     11                     12
                      A                      A                      A
 Frequencies --    964.6897              1018.4416              1086.4120
 Red. masses --      2.1684                 1.5020                 1.7352
 Frc consts  --      1.1889                 0.9179                 1.2067
 IR Inten    --     11.5972                 3.3313                 0.4536

                     13                     14                     15
                      A                      A                      A
 Frequencies --   1122.1407              1158.3709              1216.4382
 Red. masses --      1.6443                 2.2139                 1.2681
 Frc consts  --      1.2199                 1.7502                 1.1056
 IR Inten    --      0.1269                10.9326                 0.7664

                     16                     17                     18
                      A                      A                      A
 Frequencies --   1238.1621              1261.0680              1264.7830
 Red. masses --      1.4411                 1.1821                 1.3854
 Frc consts  --      1.3016                 1.1076                 1.3057
 IR Inten    --      7.8703                 4.8353                 2.4014

                     19                     20                     21
                      A                      A                      A
 Frequencies --   1323.1363              1337.4987              1345.7636
 Red. masses --      1.3589                 1.2602                 1.3149
 Frc consts  --      1.4017                 1.3282                 1.4031
 IR Inten    --     17.0961                 2.1200                 9.9732

                     22                     23                     24
                      A                      A                      A
 Frequencies --   1409.5862              1457.4847              1506.3051
 Red. masses --      1.4629                 1.3897                 1.0789
 Frc consts  --      1.7125                 1.7393                 1.4423
 IR Inten    --      1.7286                13.1481                 0.8547

                     25                     26                     27
                      A                      A                      A
 Frequencies --   1526.6616              1531.2737              1551.2434
 Red. masses --      1.0960                 1.1006                 1.1111
 Frc consts  --      1.5051                 1.5205                 1.5754
 IR Inten    --      5.2078                 0.7122                 0.3806

                     28                     29                     30
                      A                      A                      A
 Frequencies --   2989.9918              2990.8122              3100.6445
 Red. masses --      1.0728                 1.0725                 1.0601
 Frc consts  --      5.6507                 5.6524                 6.0046
 IR Inten    --     43.4657               145.9671                22.9141

                     31                     32                     33
                      A                      A                      A
 Frequencies --   3109.3781              3126.7713              3130.6955
 Red. masses --      1.0629                 1.0914                 1.0904
 Frc consts  --      6.0549                 6.2867                 6.2966
 IR Inten    --     43.3240                55.1468                 4.4797

                     34                     35                     36
                      A                      A                      A
 Frequencies --   3142.5579              3160.9698              3564.7995
 Red. masses --      1.1058                 1.1064                 1.0754
 Frc consts  --      6.4341                 6.5132                 8.0519
 IR Inten    --      5.8199                54.4610                 0.9133

 - Thermochemistry -
 -------------------
 Temperature   298.150 Kelvin.  Pressure   1.00000 Atm.
 Atom     1 has atomic number  6 and mass  12.00000

 Molecular mass:    71.07350 amu.
 Principal axes and moments of inertia in atomic units:
                           1         2         3
     Eigenvalues --   261.65263 264.75844 460.92036
           X           -0.01118   0.99994   0.00016
           Y            0.99969   0.01118  -0.02218
           Z            0.02218   0.00009   0.99975
 This molecule is an asymmetric top.
 Rotational symmetry number  1.
 Rotational temperatures (Kelvin)      0.33103     0.32714     0.18791
 Rotational constants (GHZ):           6.89747     6.81656     3.91552
 Zero-point vibrational energy     345057.2 (Joules/Mol)
                                   82.47065 (Kcal/Mol)
 Warning -- explicit consideration of   3 degrees of freedom as
           vibrations may cause significant error
 Vibrational temperatures:    119.67   442.96   854.18   913.57  1120.52
          (Kelvin)           1264.13  1296.48  1327.07  1370.30  1387.97
                             1465.31  1563.10  1614.51  1666.64  1750.18
                             1781.44  1814.39  1819.74  1903.70  1924.36
                             1936.25  2028.08  2096.99  2167.23  2196.52
                             2203.16  2231.89  4301.93  4303.11  4461.13
                             4473.70  4498.72  4504.37  4521.43  4547.92
                             5128.94

 Zero-point correction=                           0.131425 (Hartree/Particle)
 Thermal correction to Energy=                    0.136293
 Thermal correction to Enthalpy=                  0.137237
 Thermal correction to Gibbs Free Energy=         0.103446
 Sum of electronic and zero-point Energies=           -212.348332
 Sum of electronic and thermal Energies=              -212.343464
 Sum of electronic and thermal Enthalpies=            -212.342520
 Sum of electronic and thermal Free Energies=         -212.376311

                     E (Thermal)             CV                S
                      KCal/Mol        Cal/Mol-Kelvin    Cal/Mol-Kelvin
 Total                   85.525             17.331             71.119
 Electronic               0.000              0.000              0.000
 Translational            0.889              2.981             38.700
 Rotational               0.889              2.981             24.971
 Vibrational             83.748             11.369              7.448
 Vibration     1          0.600              1.961              3.814
 Vibration     2          0.698              1.659              1.374
 Vibration     3          0.951              1.045              0.461

 1\1\GINC-KATANA3\Freq\RM062X\6-31+G(d)\C4H9N1\Z5358697\17-Mar-2025\0\\
 #N Geom=AllCheck Guess=TCheck SCRF=Check GenChk RM062X/6-31+G(d) Freq\
 \pyrrolidine\\0,1\C,0.2713879668,0.4739628855,1.174130985\C,0.01039686
 16,1.288874102,-0.1205398448\C,-0.4426328077,0.2362018868,-1.146113224
 1\N,0.2043562307,-0.9812281375,-0.6606053672\C,-0.0468817333,-0.978459
 3197,0.7794263334\H,-0.3461619672,0.8080670053,2.0121912556\H,1.318194
 9946,0.5623252532,1.4763409098\H,-0.7439182764,2.0680355023,0.01815482
 17\H,0.9305390203,1.7726336421,-0.4586792167\H,-1.5447649284,0.1555134

 Normal termination of Gaussian 09 at Mon Mar 17 15:47:59 2025.
