 Gaussian 09, Revision D.01,
 Gaussian 09:  ES64L-G09RevD.01 24-Apr-2013

 -------------------------------
 #m062X/Def2SVP OPT Freq=noraman
 -------------------------------

 -------------
 diiodomethane
 -------------
 Symbolic Z-matrix:
 Charge =  0 Multiplicity = 1

 SCF Done:  E(RM062X) =  -634.486080313     A.U. after   14 cycles
 SCF Done:  E(RM062X) =  -634.489547325     A.U. after   15 cycles
 SCF Done:  E(RM062X) =  -634.489860206     A.U. after   13 cycles
 SCF Done:  E(RM062X) =  -634.489864070     A.U. after    8 cycles
 Optimization completed.
    -- Stationary point found.
 Normal termination of Gaussian 09 at Thu Mar 13 15:48:04 2025.

 -------------------------------------------------------------------
 #N Geom=AllCheck Guess=TCheck SCRF=Check GenChk RM062X/def2SVP Freq
 -------------------------------------------------------------------

 Structure from the checkpoint file:  "/srv/scratch/z5358697/gauss/Gau-1686149.chk"
 -------------
 diiodomethane
 -------------
 Charge =  0 Multiplicity = 1

                         Standard orientation:
 ---------------------------------------------------------------------
 Center     Atomic      Atomic             Coordinates (Angstroms)
 Number     Number       Type             X           Y           Z
 ---------------------------------------------------------------------
      1          6           0       -0.000010    1.049269    0.000001
      2         53           0       -1.807866   -0.090816    0.000000
      3         53           0        1.807867   -0.090816    0.000000
      4          1           0        0.000001    1.665465    0.901196
      5          1           0        0.000000    1.665416   -0.901225
 ---------------------------------------------------------------------

 SCF Done:  E(RM062X) =  -634.489864070     A.U. after    1 cycles

 The electronic state is 1-A.
 Alpha  occ. eigenvalues --  -10.65229  -7.11019  -7.11018  -5.10720  -5.10719
 Alpha  occ. eigenvalues --   -5.09221  -5.09220  -5.09191  -5.09191  -2.07543
 Alpha  occ. eigenvalues --   -2.07532  -2.07021  -2.07016  -2.06993  -2.06991
 Alpha  occ. eigenvalues --   -2.05757  -2.05757  -2.05757  -2.05756  -0.87833
 Alpha  occ. eigenvalues --   -0.78592  -0.70901  -0.54145  -0.46351  -0.43326
 Alpha  occ. eigenvalues --   -0.33049  -0.32547  -0.31963  -0.30974
 Alpha virt. eigenvalues --   -0.03570   0.01947   0.10591   0.13471   0.29519
 Alpha virt. eigenvalues --    0.33013   0.35073   0.35529   0.38580   0.42053
 Alpha virt. eigenvalues --    0.42409   0.42693   0.43512   0.45697   0.45872

 Mulliken charges:
               1
     1  C   -0.394565
     2  I    0.039106
     3  I    0.039098
     4  H    0.158181
     5  H    0.158180
 Sum of Mulliken charges =   0.00000

 Dipole moment (field-independent basis, Debye):
    X=             -0.0001    Y=              1.1589    Z=              0.0000  Tot=              1.1589
 Quadrupole moment (field-independent basis, Debye-Ang):
   XX=            -59.6019   YY=            -57.7674   ZZ=            -60.8214
   XY=              0.0000   XZ=              0.0000   YZ=              0.0000

  Exact polarizability:  90.714   0.000  47.041   0.000   0.000  38.981
 Approx polarizability: 105.296   0.000  66.046   0.000   0.000  53.391

                      1                      2                      3
                      A                      A                      A
 Frequencies --    121.3952               503.0059               607.9118
 Red. masses --     52.2285                 5.7890                 6.2308
 Frc consts  --      0.4535                 0.8630                 1.3567
 IR Inten    --      0.0026                 0.1512                47.1158

                      4                      5                      6
                      A                      A                      A
 Frequencies --    731.6740              1075.8582              1157.1624
 Red. masses --      1.2814                 1.0098                 1.1156
 Frc consts  --      0.4042                 0.6886                 0.8801
 IR Inten    --     12.1103                 0.0000               113.0846

                      7                      8                      9
                      A                      A                      A
 Frequencies --   1402.9713              3168.8530              3269.1743
 Red. masses --      1.0804                 1.0555                 1.1166
 Frc consts  --      1.2530                 6.2446                 7.0314
 IR Inten    --      0.0051                 0.4231                11.2797

 - Thermochemistry -
 -------------------
 Temperature   298.150 Kelvin.  Pressure   1.00000 Atm.
 Atom     1 has atomic number  6 and mass  12.00000

 Molecular mass:   267.81645 amu.
 Principal axes and moments of inertia in atomic units:
                           1         2         3
     Eigenvalues --    79.793282968.108293036.20939
           X            1.00000   0.00000   0.00000
           Y            0.00000   1.00000   0.00000
           Z            0.00000   0.00000   1.00000
 This molecule is an asymmetric top.
 Rotational symmetry number  1.
 Rotational temperatures (Kelvin)      1.08548     0.02918     0.02853
 Rotational constants (GHZ):          22.61771     0.60804     0.59441
 Zero-point vibrational energy      72003.3 (Joules/Mol)
                                   17.20919 (Kcal/Mol)
 Warning -- explicit consideration of   3 degrees of freedom as
           vibrations may cause significant error
 Vibrational temperatures:    174.66   723.71   874.65  1052.71  1547.92
          (Kelvin)           1664.90  2018.56  4559.27  4703.61

 Zero-point correction=                           0.027425 (Hartree/Particle)
 Thermal correction to Energy=                    0.031484
 Thermal correction to Enthalpy=                  0.032429
 Thermal correction to Gibbs Free Energy=        -0.003345
 Sum of electronic and zero-point Energies=           -634.462439
 Sum of electronic and thermal Energies=              -634.458380
 Sum of electronic and thermal Enthalpies=            -634.457435
 Sum of electronic and thermal Free Energies=         -634.493209

                     E (Thermal)             CV                S
                      KCal/Mol        Cal/Mol-Kelvin    Cal/Mol-Kelvin
 Total                   19.757             11.562             75.292
 Electronic               0.000              0.000              0.000
 Translational            0.889              2.981             42.655
 Rotational               0.889              2.981             28.066
 Vibrational             17.979              5.600              4.572
 Vibration     1          0.609              1.931              3.078
 Vibration     2          0.858              1.243              0.651
 Vibration     3          0.967              1.015              0.436

 Optimization completed.
    -- Stationary point found.
 Normal termination of Gaussian 09 at Thu Mar 13 15:48:31 2025.
