 Gaussian 09, Revision D.01,
 Gaussian 09:  ES64L-G09RevD.01 24-Apr-2013

 ---------------------------------
 #m062X/6-31+G(d) OPT Freq=noraman
 ---------------------------------

 -----------
 1,4-dioxane
 -----------
 Symbolic Z-matrix:
 Charge =  0 Multiplicity = 1

 SCF Done:  E(RM062X) =  -307.532226517     A.U. after   11 cycles
 SCF Done:  E(RM062X) =  -307.533466038     A.U. after    9 cycles
 SCF Done:  E(RM062X) =  -307.533575496     A.U. after    9 cycles
 SCF Done:  E(RM062X) =  -307.533582789     A.U. after    8 cycles
 Optimization completed.
    -- Stationary point found.

 1\1\GINC-KATANA1\FOpt\RM062X\6-31+G(d)\C4H8O2\Z5358697\17-Mar-2025\0\\
 #m062X/6-31+G(d) OPT Freq=noraman\\1,4-dioxane\\0,1\C,0.2200211686,-0.
 9149586031,-1.0242180546\C,-0.0995426,0.5505401545,-1.2734070893\O,0.3
 578768413,1.3467557146,-0.1948384447\C,-0.2199776069,0.9149593814,1.02
 4232675\C,0.0995869894,-0.5505384995,1.2734218637\O,-0.3578352416,-1.3
 467547695,0.1948530561\H,1.3123339309,-1.0546624299,-0.9862148209\H,-0
 .195114292,-1.5486308475,-1.8125174102\H,0.4040217842,0.9166411053,-2.
 1721204584\H,-1.1876310343,0.6774639863,-1.3919807453\H,0.1951538006,1

 Normal termination of Gaussian 09 at Mon Mar 17 18:27:12 2025.

 ---------------------------------------------------------------------
 #N Geom=AllCheck Guess=TCheck SCRF=Check GenChk RM062X/6-31+G(d) Freq
 ---------------------------------------------------------------------

 Structure from the checkpoint file:  "/srv/scratch/z5358697/gauss/Gau-2199320.chk"
 -----------
 1,4-dioxane
 -----------
 Charge =  0 Multiplicity = 1

                         Standard orientation:
 ---------------------------------------------------------------------
 Center     Atomic      Atomic             Coordinates (Angstroms)
 Number     Number       Type             X           Y           Z
 ---------------------------------------------------------------------
      1          6           0       -1.164732   -0.734997   -0.194332
      2          6           0       -1.164743    0.734983    0.194332
      3          8           0       -0.000008    1.375822   -0.294772
      4          6           0        1.164732    0.734997    0.194332
      5          6           0        1.164743   -0.734982   -0.194333
      6          8           0        0.000008   -1.375821    0.294773
      7          1           0       -1.205576   -0.828088   -1.291499
      8          1           0       -2.019923   -1.258181    0.241811
      9          1           0       -2.019940    1.258156   -0.241812
     10          1           0       -1.205586    0.828072    1.291497
     11          1           0        2.019924    1.258182   -0.241808
     12          1           0        1.205574    0.828080    1.291498
     13          1           0        1.205585   -0.828073   -1.291499
     14          1           0        2.019939   -1.258155    0.241813
 ---------------------------------------------------------------------

 SCF Done:  E(RM062X) =  -307.533582789     A.U. after    1 cycles

 The electronic state is 1-A.
 Alpha  occ. eigenvalues --  -19.65442 -19.65442 -10.59804 -10.59802 -10.59766
 Alpha  occ. eigenvalues --  -10.59764  -1.18846  -1.14889  -0.88595  -0.79465
 Alpha  occ. eigenvalues --   -0.76066  -0.66932  -0.59342  -0.55652  -0.55436
 Alpha  occ. eigenvalues --   -0.55409  -0.53115  -0.46837  -0.45280  -0.43669
 Alpha  occ. eigenvalues --   -0.43015  -0.37360  -0.36420  -0.31083
 Alpha virt. eigenvalues --    0.02805   0.03312   0.03480   0.04842   0.05548
 Alpha virt. eigenvalues --    0.05568   0.07276   0.07716   0.08966   0.09510
 Alpha virt. eigenvalues --    0.10204   0.11759   0.13275   0.13771   0.15471

 Mulliken charges:
               1
     1  C   -0.225798
     2  C   -0.225798
     3  O   -0.366160
     4  C   -0.225797
     5  C   -0.225798
     6  O   -0.366160
     7  H    0.200006
     8  H    0.208871
     9  H    0.208871
    10  H    0.200007
    11  H    0.208871
    12  H    0.200006
    13  H    0.200007
    14  H    0.208871
 Sum of Mulliken charges =   0.00000

 Dipole moment (field-independent basis, Debye):
    X=              0.0000    Y=              0.0000    Z=              0.0000  Tot=              0.0000
 Quadrupole moment (field-independent basis, Debye-Ang):
   XX=            -30.7116   YY=            -43.2956   ZZ=            -37.5574
   XY=              0.0001   XZ=              0.0000   YZ=              2.5620

  Exact polarizability:  58.857   0.000  48.632   0.000   0.964  48.785
 Approx polarizability:  61.589   0.000  54.003   0.000  -1.167  58.179

                      1                      2                      3
                      A                      A                      A
 Frequencies --    263.4198               293.5675               437.1205
 Red. masses --      1.7368                 2.9088                 2.1536
 Frc consts  --      0.0710                 0.1477                 0.2424
 IR Inten    --      1.1644                22.6929                 0.0000

                      4                      5                      6
                      A                      A                      A
 Frequencies --    448.5980               497.1353               622.2573
 Red. masses --      4.9380                 2.5558                 1.6153
 Frc consts  --      0.5855                 0.3722                 0.3685
 IR Inten    --      0.0000                 0.0000                14.3197

                      7                      8                      9
                      A                      A                      A
 Frequencies --    879.1496               879.8108               920.0040
 Red. masses --      1.5987                 3.4265                 2.2132
 Frc consts  --      0.7280                 1.5627                 1.1037
 IR Inten    --      0.0000                 0.0000                17.7737

                     10                     11                     12
                      A                      A                      A
 Frequencies --    934.5304              1061.2253              1082.1482
 Red. masses --      2.8951                 2.2002                 2.3674
 Frc consts  --      1.4897                 1.4599                 1.6334
 IR Inten    --     76.4808                 0.0000                10.6484

                     13                     14                     15
                      A                      A                      A
 Frequencies --   1121.8129              1162.6069              1208.4188
 Red. masses --      1.7729                 2.1941                 7.3387
 Frc consts  --      1.3145                 1.7473                 6.3140
 IR Inten    --      3.1232                 0.0000                 0.0001

                     16                     17                     18
                      A                      A                      A
 Frequencies --   1211.0787              1255.5187              1304.0152
 Red. masses --      3.7070                 1.0716                 1.3379
 Frc consts  --      3.2034                 0.9952                 1.3404
 IR Inten    --    158.1731                 0.0000                72.9004

                     19                     20                     21
                      A                      A                      A
 Frequencies --   1336.8042              1347.8983              1375.4668
 Red. masses --      1.2594                 1.1644                 1.2195
 Frc consts  --      1.3260                 1.2465                 1.3594
 IR Inten    --     13.9114                 0.0000                 0.0000

                     22                     23                     24
                      A                      A                      A
 Frequencies --   1414.5606              1428.3739              1450.4308
 Red. masses --      1.3627                 1.3506                 1.5515
 Frc consts  --      1.6066                 1.6236                 1.9231
 IR Inten    --     26.4377                 6.4062                 0.0000

                     25                     26                     27
                      A                      A                      A
 Frequencies --   1502.1575              1506.3786              1513.6970
 Red. masses --      1.0796                 1.0930                 1.1122
 Frc consts  --      1.4353                 1.4612                 1.5015
 IR Inten    --      0.0000                 1.2624                14.4408

                     28                     29                     30
                      A                      A                      A
 Frequencies --   1520.6508              3038.1393              3042.5782
 Red. masses --      1.1098                 1.0699                 1.0707
 Frc consts  --      1.5120                 5.8184                 5.8400
 IR Inten    --      0.0000                47.9298                 0.0000

                     31                     32                     33
                      A                      A                      A
 Frequencies --   3048.8902              3051.4932              3152.1665
 Red. masses --      1.0662                 1.0670                 1.0933
 Frc consts  --      5.8394                 5.8537                 6.4006
 IR Inten    --      0.0000               151.5700                77.4837

                     34                     35                     36
                      A                      A                      A
 Frequencies --   3153.2491              3153.7087              3153.7792
 Red. masses --      1.0988                 1.0946                 1.1001
 Frc consts  --      6.4368                 6.4142                 6.4467
 IR Inten    --      0.0007                 0.0098                40.4476

 - Thermochemistry -
 -------------------
 Temperature   298.150 Kelvin.  Pressure   1.00000 Atm.
 Atom     1 has atomic number  6 and mass  12.00000

 Molecular mass:    88.05243 amu.
 Principal axes and moments of inertia in atomic units:
                           1         2         3
     Eigenvalues --   353.06306 382.75073 654.08726
           X           -0.00001   1.00000   0.00000
           Y            0.99935   0.00001   0.03600
           Z           -0.03600   0.00000   0.99935
 This molecule is an asymmetric top.
 Rotational symmetry number  1.
 Rotational temperatures (Kelvin)      0.24532     0.22629     0.13242
 Rotational constants (GHZ):           5.11167     4.71519     2.75917
 Zero-point vibrational energy     327614.3 (Joules/Mol)
                                   78.30171 (Kcal/Mol)
 Warning -- explicit consideration of   5 degrees of freedom as
           vibrations may cause significant error
 Vibrational temperatures:    379.00   422.38   628.92   645.43   715.27
          (Kelvin)            895.29  1264.90  1265.85  1323.68  1344.58
                             1526.86  1556.97  1614.04  1672.73  1738.64
                             1742.47  1806.41  1876.18  1923.36  1939.32
                             1978.99  2035.23  2055.11  2086.84  2161.27
                             2167.34  2177.87  2187.87  4371.20  4377.59
                             4386.67  4390.41  4535.26  4536.82  4537.48
                             4537.58

 Zero-point correction=                           0.124782 (Hartree/Particle)
 Thermal correction to Energy=                    0.129859
 Thermal correction to Enthalpy=                  0.130803
 Thermal correction to Gibbs Free Energy=         0.096487
 Sum of electronic and zero-point Energies=           -307.408801
 Sum of electronic and thermal Energies=              -307.403724
 Sum of electronic and thermal Enthalpies=            -307.402779
 Sum of electronic and thermal Free Energies=         -307.437096

                     E (Thermal)             CV                S
                      KCal/Mol        Cal/Mol-Kelvin    Cal/Mol-Kelvin
 Total                   81.488             19.132             72.224
 Electronic               0.000              0.000              0.000
 Translational            0.889              2.981             39.339
 Rotational               0.889              2.981             25.983
 Vibrational             79.710             13.171              6.902
 Vibration     1          0.670              1.740              1.639
 Vibration     2          0.688              1.686              1.453
 Vibration     3          0.797              1.389              0.836
 Vibration     4          0.808              1.364              0.800
 Vibration     5          0.853              1.256              0.665

 Optimization completed.
    -- Stationary point found.

 1\1\GINC-KATANA1\Freq\RM062X\6-31+G(d)\C4H8O2\Z5358697\17-Mar-2025\0\\
 #N Geom=AllCheck Guess=TCheck SCRF=Check GenChk RM062X/6-31+G(d) Freq\
 \1,4-dioxane\\0,1\C,0.2200211686,-0.9149586031,-1.0242180546\C,-0.0995
 426,0.5505401545,-1.2734070893\O,0.3578768413,1.3467557146,-0.19483844
 47\C,-0.2199776069,0.9149593814,1.024232675\C,0.0995869894,-0.55053849
 95,1.2734218637\O,-0.3578352416,-1.3467547695,0.1948530561\H,1.3123339
 309,-1.0546624299,-0.9862148209\H,-0.195114292,-1.5486308475,-1.812517
 4102\H,0.4040217842,0.9166411053,-2.1721204584\H,-1.1876310343,0.67746

 Normal termination of Gaussian 09 at Mon Mar 17 18:30:17 2025.
