 Gaussian 09, Revision D.01,
 Gaussian 09:  ES64L-G09RevD.01 24-Apr-2013

 ---------------------------------
 #m062X/6-31+G(d) OPT Freq=noraman
 ---------------------------------

 ------------------
 tetrafluoromethane
 ------------------
 Symbolic Z-matrix:
 Charge =  0 Multiplicity = 1

 SCF Done:  E(RM062X) =  -437.359125454     A.U. after    9 cycles
 SCF Done:  E(RM062X) =  -437.361034923     A.U. after    9 cycles
 SCF Done:  E(RM062X) =  -437.361075518     A.U. after    8 cycles
 Optimization completed.
    -- Stationary point found.
 Normal termination of Gaussian 09 at Thu Mar 13 15:33:11 2025.

 ---------------------------------------------------------------------
 #N Geom=AllCheck Guess=TCheck SCRF=Check GenChk RM062X/6-31+G(d) Freq
 ---------------------------------------------------------------------

 Structure from the checkpoint file:  "/srv/scratch/z5358697/gauss/Gau-387754.chk"
 ------------------
 tetrafluoromethane
 ------------------
 Charge =  0 Multiplicity = 1

                         Standard orientation:
 ---------------------------------------------------------------------
 Center     Atomic      Atomic             Coordinates (Angstroms)
 Number     Number       Type             X           Y           Z
 ---------------------------------------------------------------------
      1          6           0       -0.000201   -0.000128    0.000125
      2          9           0        0.610133   -0.888374    0.766500
      3          9           0        0.600810    0.052868   -1.176703
      4          9           0        0.052810    1.189683    0.575452
      5          9           0       -1.263620   -0.354091   -0.165333
 ---------------------------------------------------------------------

 SCF Done:  E(RM062X) =  -437.361075518     A.U. after    1 cycles

 The electronic state is 1-A.
 Alpha  occ. eigenvalues --  -25.33994 -25.33994 -25.33992 -25.33989 -10.91300
 Alpha  occ. eigenvalues --   -1.54285  -1.42212  -1.42206  -1.42198  -0.85547
 Alpha  occ. eigenvalues --   -0.75395  -0.75393  -0.75390  -0.62255  -0.62250
 Alpha  occ. eigenvalues --   -0.58613  -0.58610  -0.58606  -0.54846  -0.54842
 Alpha  occ. eigenvalues --   -0.54839
 Alpha virt. eigenvalues --    0.01842   0.04944   0.04947   0.04947   0.19607
 Alpha virt. eigenvalues --    0.19617   0.19621   0.23730   0.24993   0.25005
 Alpha virt. eigenvalues --    0.27515   0.27532   0.27541   0.28178   0.33473

 Mulliken charges:
               1
     1  C    1.243510
     2  F   -0.310689
     3  F   -0.311060
     4  F   -0.311039
     5  F   -0.310723
 Sum of Mulliken charges =   0.00000

 Dipole moment (field-independent basis, Debye):
    X=             -0.0006    Y=             -0.0009    Z=              0.0008  Tot=              0.0014
 Quadrupole moment (field-independent basis, Debye-Ang):
   XX=            -25.7149   YY=            -25.7165   ZZ=            -25.7166
   XY=              0.0005   XZ=              0.0004   YZ=             -0.0015

  Exact polarizability:  16.618  -0.001  16.612   0.002   0.008  16.626
 Approx polarizability:  18.128   0.000  18.127   0.001   0.000  18.120

                      1                      2                      3
                      A                      A                      A
 Frequencies --    435.6248               436.6983               630.8901
 Red. masses --     18.9984                18.9984                18.1039
 Frc consts  --      2.1242                 2.1347                 4.2455
 IR Inten    --      0.0004                 0.0004                 6.6726

                      4                      5                      6
                      A                      A                      A
 Frequencies --    632.0747               632.5793               937.3981
 Red. masses --     18.1043                18.1138                18.9984
 Frc consts  --      4.2616                 4.2706                 9.8359
 IR Inten    --      6.6071                 6.3793                 0.0011

                      7                      8                      9
                      A                      A                      A
 Frequencies --   1334.9609              1336.4735              1339.0014
 Red. masses --     13.0657                13.0614                13.0594
 Frc consts  --     13.7190                13.7455                13.7955
 IR Inten    --    438.5683               437.1530               438.0910

 - Thermochemistry -
 -------------------
 Temperature   298.150 Kelvin.  Pressure   1.00000 Atm.
 Atom     1 has atomic number  6 and mass  12.00000

 Molecular mass:    87.99361 amu.
 Principal axes and moments of inertia in atomic units:
                           1         2         3
     Eigenvalues --   316.38358 316.38560 316.52784
           X            1.00000   0.00003   0.00000
           Y           -0.00003   1.00000   0.00000
           Z            0.00000   0.00000   1.00000
 This molecule is an asymmetric top.
 Rotational symmetry number  1.
 Rotational temperatures (Kelvin)      0.27376     0.27376     0.27364
 Rotational constants (GHZ):           5.70428     5.70425     5.70168
 Zero-point vibrational energy      46150.1 (Joules/Mol)
                                   11.03015 (Kcal/Mol)
 Warning -- explicit consideration of   2 degrees of freedom as
           vibrations may cause significant error
 Vibrational temperatures:    626.77   628.31   907.71   909.41   910.14
          (Kelvin)           1348.71  1920.71  1922.88  1926.52

 Zero-point correction=                           0.017578 (Hartree/Particle)
 Thermal correction to Energy=                    0.021467
 Thermal correction to Enthalpy=                  0.022412
 Thermal correction to Gibbs Free Energy=        -0.009595
 Sum of electronic and zero-point Energies=           -437.343498
 Sum of electronic and thermal Energies=              -437.339608
 Sum of electronic and thermal Enthalpies=            -437.338664
 Sum of electronic and thermal Free Energies=         -437.370670

                     E (Thermal)             CV                S
                      KCal/Mol        Cal/Mol-Kelvin    Cal/Mol-Kelvin
 Total                   13.471             12.484             67.363
 Electronic               0.000              0.000              0.000
 Translational            0.889              2.981             39.337
 Rotational               0.889              2.981             24.964
 Vibrational             11.694              6.522              3.062
 Vibration     1          0.796              1.393              0.840
 Vibration     2          0.797              1.390              0.837

 Optimization completed.
    -- Stationary point found.
 Normal termination of Gaussian 09 at Thu Mar 13 15:33:38 2025.
