 Gaussian 09, Revision D.01,
 Gaussian 09:  ES64L-G09RevD.01 24-Apr-2013

 ---------------------------------
 #m062X/6-31+G(d) OPT Freq=noraman
 ---------------------------------

 --------------------------
 1,2,4,5-tetrachlorobenzene
 --------------------------
 Symbolic Z-matrix:
 Charge =  0 Multiplicity = 1

 SCF Done:  E(RM062X) =  -2070.41160659     A.U. after   13 cycles
 SCF Done:  E(RM062X) =  -2070.41194141     A.U. after   11 cycles
 SCF Done:  E(RM062X) =  -2070.41196082     A.U. after   10 cycles
 Optimization completed.
    -- Stationary point found.
 Normal termination of Gaussian 09 at Sun Mar 16 22:23:34 2025.

 ---------------------------------------------------------------------
 #N Geom=AllCheck Guess=TCheck SCRF=Check GenChk RM062X/6-31+G(d) Freq
 ---------------------------------------------------------------------

 Structure from the checkpoint file:  "/srv/scratch/z5358697/gauss/Gau-3739849.chk"
 --------------------------
 1,2,4,5-tetrachlorobenzene
 --------------------------
 Charge =  0 Multiplicity = 1

                         Standard orientation:
 ---------------------------------------------------------------------
 Center     Atomic      Atomic             Coordinates (Angstroms)
 Number     Number       Type             X           Y           Z
 ---------------------------------------------------------------------
      1          6           0       -0.000012   -1.388464    0.000032
      2          6           0       -1.207631   -0.698617    0.000014
      3          6           0       -1.207617    0.698617   -0.000014
      4          6           0        0.000005    1.388458   -0.000012
      5          6           0        1.207630    0.698617   -0.000003
      6          6           0        1.207609   -0.698622    0.000016
      7         17           0        2.683549   -1.600172   -0.000025
      8         17           0        2.683547    1.600169    0.000018
      9         17           0       -2.683539    1.600177   -0.000012
     10         17           0       -2.683550   -1.600170    0.000007
     11          1           0       -0.000006   -2.472801    0.000022
     12          1           0       -0.000010    2.472795   -0.000011
 ---------------------------------------------------------------------

 SCF Done:  E(RM062X) =  -2070.41196082     A.U. after    1 cycles

 The electronic state is 1-A.
 Alpha  occ. eigenvalues -- -102.69706-102.69705-102.69705-102.69705 -10.65538
 Alpha  occ. eigenvalues --  -10.65537 -10.65463 -10.65462 -10.60657 -10.60656
 Alpha  occ. eigenvalues --   -9.84344  -9.84344  -9.84344  -9.84343  -7.56772
 Alpha  occ. eigenvalues --   -7.56772  -7.56771  -7.56770  -7.56075  -7.56075
 Alpha  occ. eigenvalues --   -7.56074  -7.56074  -7.56048  -7.56046  -7.56046
 Alpha  occ. eigenvalues --   -7.56046  -1.06247  -1.02260  -0.98923  -0.97534
 Alpha  occ. eigenvalues --   -0.93497  -0.86586  -0.82950  -0.74465  -0.69620
 Alpha  occ. eigenvalues --   -0.61080  -0.61009  -0.56646  -0.53331  -0.53206
 Alpha  occ. eigenvalues --   -0.52990  -0.48253  -0.47948  -0.47571  -0.44299
 Alpha  occ. eigenvalues --   -0.42590  -0.41729  -0.40693  -0.39567  -0.38952
 Alpha  occ. eigenvalues --   -0.38875  -0.33313  -0.31156
 Alpha virt. eigenvalues --   -0.02621  -0.01925   0.00114   0.01163   0.01727
 Alpha virt. eigenvalues --    0.02078   0.04053   0.05117   0.05375   0.05736
 Alpha virt. eigenvalues --    0.05932   0.06521   0.07942   0.08424   0.09163

 Mulliken charges:
               1
     1  C   -0.174396
     2  C   -0.287886
     3  C   -0.287873
     4  C   -0.174426
     5  C   -0.287911
     6  C   -0.287864
     7  Cl   0.245119
     8  Cl   0.245143
     9  Cl   0.245126
    10  Cl   0.245138
    11  H    0.259916
    12  H    0.259914
 Sum of Mulliken charges =   0.00000

 Dipole moment (field-independent basis, Debye):
    X=              0.0000    Y=              0.0000    Z=              0.0000  Tot=              0.0000
 Quadrupole moment (field-independent basis, Debye-Ang):
   XX=            -89.2241   YY=            -80.3468   ZZ=            -86.3643
   XY=              0.0003   XZ=              0.0000   YZ=              0.0000

  Exact polarizability: 163.055   0.000 122.601   0.000   0.000  61.001
 Approx polarizability: 190.231   0.001 154.009   0.000   0.000  79.084

                      1                      2                      3
                      A                      A                      A
 Frequencies --     61.6864               117.2399               196.6148
 Red. masses --     34.2339                12.1620                34.3499
 Frc consts  --      0.0768                 0.0985                 0.7824
 IR Inten    --      0.0000                 0.1894                 0.0000

                      4                      5                      6
                      A                      A                      A
 Frequencies --    209.9910               215.4078               215.7390
 Red. masses --     20.6279                30.8999                 5.7504
 Frc consts  --      0.5359                 0.8448                 0.1577
 IR Inten    --      0.1866                 0.1009                 0.0000

                      7                      8                      9
                      A                      A                      A
 Frequencies --    318.9831               346.6927               360.3550
 Red. masses --     24.1837                12.5350                28.9419
 Frc consts  --      1.4498                 0.8877                 2.2143
 IR Inten    --      0.0000                 0.0000                 0.0000

                     10                     11                     12
                      A                      A                      A
 Frequencies --    445.9414               518.8976               519.9428
 Red. masses --      3.0630                 6.2677                13.9933
 Frc consts  --      0.3589                 0.9943                 2.2289
 IR Inten    --      6.9445                 0.0000                 8.6968

                     13                     14                     15
                      A                      A                      A
 Frequencies --    610.6115               660.4008               700.9814
 Red. masses --     12.0891                 9.0158                 7.5772
 Frc consts  --      2.6557                 2.3167                 2.1937
 IR Inten    --      0.0000                70.4851                 0.0000

                     16                     17                     18
                      A                      A                      A
 Frequencies --    702.1359               884.7040               895.9251
 Red. masses --      4.0145                 1.4281                11.9950
 Frc consts  --      1.1661                 0.6586                 5.6727
 IR Inten    --      0.0000                 0.0000                 0.0000

                     19                     20                     21
                      A                      A                      A
 Frequencies --    906.5401              1076.6594              1160.6701
 Red. masses --      1.3837                 9.7621                 1.4392
 Frc consts  --      0.6700                 6.6673                 1.1423
 IR Inten    --     33.2204               104.5653                56.5445

                     22                     23                     24
                      A                      A                      A
 Frequencies --   1218.8692              1270.1683              1310.4367
 Red. masses --     10.3811                 1.1862                11.5687
 Frc consts  --      9.0867                 1.1276                11.7049
 IR Inten    --      0.0000                 0.0000                 7.1928

                     25                     26                     27
                      A                      A                      A
 Frequencies --   1385.8658              1512.4689              1632.6957
 Red. masses --      9.4450                 3.1369                10.7408
 Frc consts  --     10.6879                 4.2279                16.8694
 IR Inten    --     48.5453               190.6435                 0.0000

                     28                     29                     30
                      A                      A                      A
 Frequencies --   1665.2333              3242.4433              3244.0491
 Red. masses --      7.6521                 1.0928                 1.0937
 Frc consts  --     12.5020                 6.7692                 6.7812
 IR Inten    --      0.0000                 5.5786                 0.0000

 - Thermochemistry -
 -------------------
 Temperature   298.150 Kelvin.  Pressure   1.00000 Atm.
 Atom     1 has atomic number  6 and mass  12.00000

 Molecular mass:   213.89106 amu.
 Principal axes and moments of inertia in atomic units:
                           1         2         3
     Eigenvalues --  1571.904953847.116855419.02180
           X            1.00000   0.00000   0.00000
           Y            0.00000   1.00000   0.00000
           Z            0.00000   0.00000   1.00000
 This molecule is an asymmetric top.
 Rotational symmetry number  1.
 Warning -- assumption of classical behavior for rotation
           may cause significant error
 Rotational temperatures (Kelvin)      0.05510     0.02251     0.01598
 Rotational constants (GHZ):           1.14812     0.46912     0.33304
 Zero-point vibrational energy     165134.6 (Joules/Mol)
                                   39.46812 (Kcal/Mol)
 Warning -- explicit consideration of  13 degrees of freedom as
           vibrations may cause significant error
 Vibrational temperatures:     88.75   168.68   282.88   302.13   309.92
          (Kelvin)            310.40   458.94   498.81   518.47   641.61
                              746.58   748.08   878.53   950.17  1008.55
                             1010.22  1272.89  1289.03  1304.31  1549.07
                             1669.94  1753.68  1827.49  1885.42  1993.95
                             2176.10  2349.08  2395.90  4665.15  4667.46

 Zero-point correction=                           0.062896 (Hartree/Particle)
 Thermal correction to Energy=                    0.072002
 Thermal correction to Enthalpy=                  0.072946
 Thermal correction to Gibbs Free Energy=         0.026707
 Sum of electronic and zero-point Energies=          -2070.349064
 Sum of electronic and thermal Energies=             -2070.339959
 Sum of electronic and thermal Enthalpies=           -2070.339014
 Sum of electronic and thermal Free Energies=        -2070.385254

                     E (Thermal)             CV                S
                      KCal/Mol        Cal/Mol-Kelvin    Cal/Mol-Kelvin
 Total                   45.182             32.121             97.320
 Electronic               0.000              0.000              0.000
 Translational            0.889              2.981             41.984
 Rotational               0.889              2.981             31.861
 Vibrational             43.405             26.159             23.474
 Vibration     1          0.597              1.973              4.403
 Vibration     2          0.608              1.935              3.145
 Vibration     3          0.636              1.845              2.165
 Vibration     4          0.642              1.826              2.044
 Vibration     5          0.645              1.818              1.997
 Vibration     6          0.645              1.817              1.995
 Vibration     7          0.705              1.637              1.315
 Vibration     8          0.725              1.582              1.181
 Vibration     9          0.735              1.554              1.121
 Vibration    10          0.805              1.370              0.808
 Vibration    11          0.874              1.208              0.613
 Vibration    12          0.875              1.206              0.610
 Vibration    13          0.970              1.009              0.432

 Optimization completed.
    -- Stationary point found.
 Normal termination of Gaussian 09 at Sun Mar 16 22:31:02 2025.
