 Gaussian 09, Revision D.01,
 Gaussian 09:  ES64L-G09RevD.01 24-Apr-2013

 ---------------------------------
 #m062X/6-31+G(d) OPT Freq=noraman
 ---------------------------------

 --------------
 2-fluorophenol
 --------------
 Symbolic Z-matrix:
 Charge =  0 Multiplicity = 1

 SCF Done:  E(RM062X) =  -406.552229051     A.U. after   14 cycles
 SCF Done:  E(RM062X) =  -406.553668397     A.U. after   13 cycles
 SCF Done:  E(RM062X) =  -406.553793101     A.U. after   11 cycles
 SCF Done:  E(RM062X) =  -406.553800727     A.U. after   10 cycles
 SCF Done:  E(RM062X) =  -406.553801042     A.U. after    8 cycles
 Optimization completed.
    -- Stationary point found.
 Normal termination of Gaussian 09 at Fri Mar 21 10:55:29 2025.

 ---------------------------------------------------------------------
 #N Geom=AllCheck Guess=TCheck SCRF=Check GenChk RM062X/6-31+G(d) Freq
 ---------------------------------------------------------------------

 Structure from the checkpoint file:  "/srv/scratch/z5358697/gauss/Gau-2552247.chk"
 --------------
 2-fluorophenol
 --------------
 Charge =  0 Multiplicity = 1

                         Standard orientation:
 ---------------------------------------------------------------------
 Center     Atomic      Atomic             Coordinates (Angstroms)
 Number     Number       Type             X           Y           Z
 ---------------------------------------------------------------------
      1          6           0       -1.857666    0.740346   -0.000001
      2          6           0       -1.902872   -0.653506    0.000000
      3          6           0       -0.715038   -1.385657    0.000002
      4          6           0        0.482130   -0.697394    0.000002
      5          6           0        0.552580    0.693831    0.000001
      6          6           0       -0.638226    1.414846   -0.000001
      7          8           0        1.744119    1.343887    0.000002
      8          9           0        1.664682   -1.365034   -0.000003
      9          1           0       -2.780369    1.312048   -0.000005
     10          1           0       -2.855034   -1.173494    0.000002
     11          1           0       -0.702567   -2.470693    0.000004
     12          1           0       -0.585619    2.498922   -0.000003
     13          1           0        2.463061    0.692628    0.000002
 ---------------------------------------------------------------------

 SCF Done:  E(RM062X) =  -406.553801042     A.U. after    1 cycles

 The electronic state is 1-A.
 Alpha  occ. eigenvalues --  -25.29431 -19.68915 -10.64489 -10.63011 -10.57218
 Alpha  occ. eigenvalues --  -10.56665 -10.56507 -10.56486  -1.38534  -1.20043
 Alpha  occ. eigenvalues --   -0.97543  -0.86272  -0.85190  -0.72952  -0.71500
 Alpha  occ. eigenvalues --   -0.66286  -0.61690  -0.58941  -0.58121  -0.54635
 Alpha  occ. eigenvalues --   -0.51992  -0.50993  -0.49557  -0.47941  -0.44410
 Alpha  occ. eigenvalues --   -0.42149  -0.42114  -0.31683  -0.28969
 Alpha virt. eigenvalues --    0.01191   0.01372   0.02484   0.02745   0.03454
 Alpha virt. eigenvalues --    0.04842   0.05339   0.07283   0.08058   0.09240
 Alpha virt. eigenvalues --    0.09629   0.09894   0.10419   0.13592   0.13671

 Mulliken charges:
               1
     1  C   -0.335163
     2  C   -0.175728
     3  C   -0.233259
     4  C    0.673983
     5  C   -0.201193
     6  C   -0.070110
     7  O   -0.655132
     8  F   -0.387323
     9  H    0.211753
    10  H    0.212280
    11  H    0.231243
    12  H    0.227405
    13  H    0.501244
 Sum of Mulliken charges =   0.00000

 Dipole moment (field-independent basis, Debye):
    X=             -0.8696    Y=             -0.5156    Z=              0.0000  Tot=              1.0110
 Quadrupole moment (field-independent basis, Debye-Ang):
   XX=            -40.3189   YY=            -44.9975   ZZ=            -49.0532
   XY=             -0.3771   XZ=              0.0000   YZ=              0.0000

  Exact polarizability:  86.154   2.186  79.592   0.000   0.000  40.192
 Approx polarizability: 109.411   2.098 103.278   0.000   0.000  50.069

                      1                      2                      3
                      A                      A                      A
 Frequencies --    195.4063               296.8964               306.8356
 Red. masses --      5.5677                 5.2399                 7.7411
 Frc consts  --      0.1253                 0.2721                 0.4294
 IR Inten    --      0.3103                 0.5577                 7.9393

                      4                      5                      6
                      A                      A                      A
 Frequencies --    429.1942               444.0928               460.2553
 Red. masses --      1.1185                 6.5417                 2.8950
 Frc consts  --      0.1214                 0.7601                 0.3613
 IR Inten    --    137.3982                 0.7726                 0.4771

                      7                      8                      9
                      A                      A                      A
 Frequencies --    560.0351               569.3629               583.6102
 Red. masses --      5.9744                 3.8656                 7.6664
 Frc consts  --      1.1040                 0.7383                 1.5385
 IR Inten    --      3.6134                 1.6380                 3.9507

                     10                     11                     12
                      A                      A                      A
 Frequencies --    701.1099               769.9965               797.2725
 Red. masses --      4.7133                 1.2450                 5.9162
 Frc consts  --      1.3651                 0.4349                 2.2157
 IR Inten    --      0.2480                88.9461                38.9374

                     13                     14                     15
                      A                      A                      A
 Frequencies --    861.6003               872.7782               957.8527
 Red. masses --      5.8852                 1.3853                 1.3637
 Frc consts  --      2.5741                 0.6217                 0.7372
 IR Inten    --     12.9414                 0.1459                 5.6137

                     16                     17                     18
                      A                      A                      A
 Frequencies --    999.3188              1063.5857              1121.9953
 Red. masses --      1.2745                 1.8621                 1.7598
 Frc consts  --      0.7499                 1.2411                 1.3053
 IR Inten    --      0.0101                12.9323                18.2523

                     19                     20                     21
                      A                      A                      A
 Frequencies --   1179.8833              1201.9452              1276.1743
 Red. masses --      1.1117                 1.3743                 3.2667
 Frc consts  --      0.9118                 1.1697                 3.1346
 IR Inten    --      1.8596                64.9955                92.9598

                     22                     23                     24
                      A                      A                      A
 Frequencies --   1311.1397              1345.2800              1401.5956
 Red. masses --      1.7890                 3.2964                 2.3245
 Frc consts  --      1.8120                 3.5149                 2.6905
 IR Inten    --     93.1111                57.6311                13.1306

                     25                     26                     27
                      A                      A                      A
 Frequencies --   1528.3139              1576.9623              1698.5840
 Red. masses --      2.7579                 3.8002                 6.7420
 Frc consts  --      3.7953                 5.5679                11.4608
 IR Inten    --      5.0038               216.9282                13.0200

                     28                     29                     30
                      A                      A                      A
 Frequencies --   1712.6793              3218.5230              3228.5111
 Red. masses --      7.7030                 1.0868                 1.0906
 Frc consts  --     13.3126                 6.6328                 6.6976
 IR Inten    --     43.8850                 0.6373                 5.8328

                     31                     32                     33
                      A                      A                      A
 Frequencies --   3235.2987              3242.2678              3783.5117
 Red. masses --      1.0949                 1.0985                 1.0658
 Frc consts  --      6.7522                 6.8038                 8.9892
 IR Inten    --      2.6594                 3.3601               112.0295

 - Thermochemistry -
 -------------------
 Temperature   298.150 Kelvin.  Pressure   1.00000 Atm.
 Atom     1 has atomic number  6 and mass  12.00000

 Molecular mass:   112.03244 amu.
 Principal axes and moments of inertia in atomic units:
                           1         2         3
     Eigenvalues --   537.37092 808.736021346.10694
           X            0.99873   0.05044   0.00000
           Y           -0.05044   0.99873   0.00000
           Z            0.00000   0.00000   1.00000
 This molecule is an asymmetric top.
 Rotational symmetry number  1.
 Warning -- assumption of classical behavior for rotation
           may cause significant error
 Rotational temperatures (Kelvin)      0.16118     0.10710     0.06434
 Rotational constants (GHZ):           3.35846     2.23156     1.34071
 Zero-point vibrational energy     256789.6 (Joules/Mol)
                                   61.37419 (Kcal/Mol)
 Warning -- explicit consideration of   9 degrees of freedom as
           vibrations may cause significant error
 Vibrational temperatures:    281.15   427.17   441.47   617.51   638.95
          (Kelvin)            662.20   805.76   819.19   839.68  1008.74
                             1107.85  1147.10  1239.65  1255.73  1378.13
                             1437.80  1530.26  1614.30  1697.59  1729.33
                             1836.13  1886.44  1935.56  2016.58  2198.90
                             2268.89  2443.88  2464.16  4630.73  4645.10
                             4654.87  4664.89  5443.62

 Zero-point correction=                           0.097806 (Hartree/Particle)
 Thermal correction to Energy=                    0.103998
 Thermal correction to Enthalpy=                  0.104942
 Thermal correction to Gibbs Free Energy=         0.067660
 Sum of electronic and zero-point Energies=           -406.455995
 Sum of electronic and thermal Energies=              -406.449803
 Sum of electronic and thermal Enthalpies=            -406.448859
 Sum of electronic and thermal Free Energies=         -406.486141

                     E (Thermal)             CV                S
                      KCal/Mol        Cal/Mol-Kelvin    Cal/Mol-Kelvin
 Total                   65.260             24.358             78.467
 Electronic               0.000              0.000              0.000
 Translational            0.889              2.981             40.057
 Rotational               0.889              2.981             27.861
 Vibrational             63.482             18.396             10.549
 Vibration     1          0.636              1.846              2.176
 Vibration     2          0.691              1.680              1.434
 Vibration     3          0.697              1.661              1.379
 Vibration     4          0.791              1.407              0.861
 Vibration     5          0.804              1.374              0.814
 Vibration     6          0.818              1.338              0.765
 Vibration     7          0.916              1.118              0.524
 Vibration     8          0.925              1.098              0.505
 Vibration     9          0.940              1.067              0.479

 Optimization completed.
    -- Stationary point found.
 Normal termination of Gaussian 09 at Fri Mar 21 11:00:14 2025.
