 Gaussian 09, Revision D.01,
 Gaussian 09:  ES64L-G09RevD.01 24-Apr-2013

 ---------------------------------
 #m062X/6-31+G(d) OPT Freq=noraman
 ---------------------------------

 -----------
 propan-2-ol
 -----------
 Symbolic Z-matrix:
 Charge =  0 Multiplicity = 1

 SCF Done:  E(RM062X) =  -194.259967973     A.U. after   12 cycles
 SCF Done:  E(RM062X) =  -194.260951380     A.U. after   10 cycles
 SCF Done:  E(RM062X) =  -194.261023619     A.U. after    9 cycles
 SCF Done:  E(RM062X) =  -194.261030041     A.U. after    9 cycles
 SCF Done:  E(RM062X) =  -194.261033310     A.U. after    9 cycles
 SCF Done:  E(RM062X) =  -194.261035215     A.U. after    9 cycles
 SCF Done:  E(RM062X) =  -194.261035611     A.U. after    8 cycles
 Optimization completed.
    -- Stationary point found.

 1\1\GINC-KATANA2\FOpt\RM062X\6-31+G(d)\C3H8O1\Z5358697\21-Mar-2025\0\\
 #m062X/6-31+G(d) OPT Freq=noraman\\propan-2-ol\\0,1\C,1.0780772084,0.0
 328232747,0.1885111708\C,1.3497455846,0.896700017,1.4144077404\C,2.835
 0896768,1.0427656188,1.6924146547\O,0.8485402711,2.2172187015,1.230382
 583\H,0.0024520713,-0.0523061678,-0.0069129073\H,1.5537553958,0.476942
 0875,-0.6924748558\H,1.4730369212,-0.9790414127,0.3286383223\H,0.86371
 20999,0.4428063056,2.2925244871\H,2.9976427572,1.6869648396,2.56081634
 95\H,3.3315052711,1.4969396617,0.8282114718\H,3.2896869812,0.066443273

 Normal termination of Gaussian 09 at Fri Mar 21 00:03:38 2025.

 ---------------------------------------------------------------------
 #N Geom=AllCheck Guess=TCheck SCRF=Check GenChk RM062X/6-31+G(d) Freq
 ---------------------------------------------------------------------

 Structure from the checkpoint file:  "/srv/scratch/z5358697/gauss/Gau-2212478.chk"
 -----------
 propan-2-ol
 -----------
 Charge =  0 Multiplicity = 1

                         Standard orientation:
 ---------------------------------------------------------------------
 Center     Atomic      Atomic             Coordinates (Angstroms)
 Number     Number       Type             X           Y           Z
 ---------------------------------------------------------------------
      1          6           0       -1.191412   -0.780703   -0.102744
      2          6           0        0.001161    0.043383    0.367956
      3          6           0        1.321650   -0.550205   -0.089026
      4          8           0       -0.046824    1.363054   -0.165903
      5          1           0       -2.137487   -0.332514    0.223564
      6          1           0       -1.196457   -0.836792   -1.196580
      7          1           0       -1.146984   -1.797758    0.301142
      8          1           0       -0.006410    0.096149    1.468182
      9          1           0        2.154639    0.075858    0.242202
     10          1           0        1.345098   -0.605317   -1.182627
     11          1           0        1.453857   -1.557663    0.317601
     12          1           0       -0.880060    1.778753    0.096628
 ---------------------------------------------------------------------

 SCF Done:  E(RM062X) =  -194.261035611     A.U. after    1 cycles

 The electronic state is 1-A.
 Alpha  occ. eigenvalues --  -19.64236 -10.59998 -10.54036 -10.53343  -1.14362
 Alpha  occ. eigenvalues --   -0.87356  -0.78464  -0.67314  -0.59295  -0.52797
 Alpha  occ. eigenvalues --   -0.50924  -0.45775  -0.44712  -0.43883  -0.42254
 Alpha  occ. eigenvalues --   -0.38897  -0.34469
 Alpha virt. eigenvalues --    0.02044   0.04308   0.04525   0.05425   0.07748
 Alpha virt. eigenvalues --    0.08152   0.08591   0.08986   0.10441   0.12009
 Alpha virt. eigenvalues --    0.13554   0.15783   0.20842   0.22091   0.22943

 Mulliken charges:
               1
     1  C   -0.635200
     2  C   -0.007568
     3  C   -0.633943
     4  O   -0.646327
     5  H    0.194400
     6  H    0.224374
     7  H    0.210973
     8  H    0.180731
     9  H    0.222397
    10  H    0.219533
    11  H    0.204037
    12  H    0.466592
 Sum of Mulliken charges =   0.00000

 Dipole moment (field-independent basis, Debye):
    X=             -1.2585    Y=             -0.8433    Z=              0.9681  Tot=              1.7978
 Quadrupole moment (field-independent basis, Debye-Ang):
   XX=            -25.6029   YY=            -27.4506   ZZ=            -27.2867
   XY=             -2.9656   XZ=             -0.2944   YZ=              1.2552

  Exact polarizability:  42.966  -0.579  41.564  -0.192  -0.247  38.412
 Approx polarizability:  43.599  -0.837  44.922  -0.407  -0.846  43.743

                      1                      2                      3
                      A                      A                      A
 Frequencies --    232.1215               280.1219               320.2612
 Red. masses --      1.0255                 1.0982                 1.0603
 Frc consts  --      0.0326                 0.0508                 0.0641
 IR Inten    --      4.7886                 4.9651               131.1520

                      4                      5                      6
                      A                      A                      A
 Frequencies --    369.4213               422.6342               487.4305
 Red. masses --      2.1422                 2.8476                 2.2518
 Frc consts  --      0.1722                 0.2997                 0.3152
 IR Inten    --      2.6420                11.4607                 8.3425

                      7                      8                      9
                      A                      A                      A
 Frequencies --    847.0514               934.4639               960.1362
 Red. masses --      2.5875                 1.1673                 1.4355
 Frc consts  --      1.0938                 0.6006                 0.7797
 IR Inten    --      2.9847                 0.2270                 0.6542

                     10                     11                     12
                      A                      A                      A
 Frequencies --   1000.3486              1104.7896              1181.3687
 Red. masses --      2.0231                 1.5608                 1.9908
 Frc consts  --      1.1928                 1.1225                 1.6370
 IR Inten    --     36.2141                26.4553                11.0766

                     13                     14                     15
                      A                      A                      A
 Frequencies --   1210.8828              1287.4310              1388.9516
 Red. masses --      2.1151                 1.2327                 1.2784
 Frc consts  --      1.8272                 1.2038                 1.4531
 IR Inten    --     48.3733                59.8436                19.9634

                     16                     17                     18
                      A                      A                      A
 Frequencies --   1405.3771              1433.2370              1451.8448
 Red. masses --      1.2444                 1.3634                 1.5263
 Frc consts  --      1.4481                 1.6501                 1.8956
 IR Inten    --      0.8184                26.7144                23.1521

                     19                     20                     21
                      A                      A                      A
 Frequencies --   1506.9450              1509.5109              1522.7751
 Red. masses --      1.0458                 1.0712                 1.0758
 Frc consts  --      1.3992                 1.4381                 1.4698
 IR Inten    --      0.5353                 2.0252                 5.0513

                     22                     23                     24
                      A                      A                      A
 Frequencies --   1532.9368              3034.9864              3064.2905
 Red. masses --      1.0546                 1.0842                 1.0359
 Frc consts  --      1.4601                 5.8840                 5.7308
 IR Inten    --      8.4495                56.4455                21.0059

                     25                     26                     27
                      A                      A                      A
 Frequencies --   3079.6534              3137.1466              3149.8949
 Red. masses --      1.0359                 1.1016                 1.1031
 Frc consts  --      5.7884                 6.3875                 6.4483
 IR Inten    --     13.4979                30.2197                 7.3998

                     28                     29                     30
                      A                      A                      A
 Frequencies --   3157.9336              3167.4661              3821.3222
 Red. masses --      1.1019                 1.1031                 1.0664
 Frc consts  --      6.4747                 6.5204                 9.1751
 IR Inten    --     40.1870                20.2304                24.9355

 - Thermochemistry -
 -------------------
 Temperature   298.150 Kelvin.  Pressure   1.00000 Atm.
 Atom     1 has atomic number  6 and mass  12.00000

 Molecular mass:    60.05751 amu.
 Principal axes and moments of inertia in atomic units:
                           1         2         3
     Eigenvalues --   207.58285 223.27591 376.55901
           X            0.98770  -0.15634  -0.00230
           Y            0.15635   0.98747   0.02132
           Z           -0.00106  -0.02142   0.99977
 This molecule is an asymmetric top.
 Rotational symmetry number  1.
 Rotational temperatures (Kelvin)      0.41725     0.38792     0.23001
 Rotational constants (GHZ):           8.69408     8.08301     4.79272
 Zero-point vibrational energy     287120.1 (Joules/Mol)
                                   68.62335 (Kcal/Mol)
 Warning -- explicit consideration of   6 degrees of freedom as
           vibrations may cause significant error
 Vibrational temperatures:    333.97   403.03   460.78   531.51   608.08
          (Kelvin)            701.30  1218.72  1344.48  1381.42  1439.28
                             1589.54  1699.72  1742.19  1852.32  1998.39
                             2022.02  2062.11  2088.88  2168.16  2171.85
                             2190.93  2205.55  4366.66  4408.83  4430.93
                             4513.65  4531.99  4543.56  4557.27  5498.02

 Zero-point correction=                           0.109358 (Hartree/Particle)
 Thermal correction to Energy=                    0.114715
 Thermal correction to Enthalpy=                  0.115659
 Thermal correction to Gibbs Free Energy=         0.082062
 Sum of electronic and zero-point Energies=           -194.151677
 Sum of electronic and thermal Energies=              -194.146321
 Sum of electronic and thermal Enthalpies=            -194.145376
 Sum of electronic and thermal Free Energies=         -194.178973

                     E (Thermal)             CV                S
                      KCal/Mol        Cal/Mol-Kelvin    Cal/Mol-Kelvin
 Total                   71.985             18.688             70.711
 Electronic               0.000              0.000              0.000
 Translational            0.889              2.981             38.198
 Rotational               0.889              2.981             24.371
 Vibrational             70.207             12.726              8.141
 Vibration     1          0.653              1.792              1.862
 Vibration     2          0.680              1.710              1.533
 Vibration     3          0.706              1.635              1.309
 Vibration     4          0.742              1.535              1.082
 Vibration     5          0.785              1.421              0.883
 Vibration     6          0.843              1.278              0.690

 Optimization completed.
    -- Stationary point found.

 1\1\GINC-KATANA2\Freq\RM062X\6-31+G(d)\C3H8O1\Z5358697\21-Mar-2025\0\\
 #N Geom=AllCheck Guess=TCheck SCRF=Check GenChk RM062X/6-31+G(d) Freq\
 \propan-2-ol\\0,1\C,1.0780772084,0.0328232747,0.1885111708\C,1.3497455
 846,0.896700017,1.4144077404\C,2.8350896768,1.0427656188,1.6924146547\
 O,0.8485402711,2.2172187015,1.230382583\H,0.0024520713,-0.0523061678,-
 0.0069129073\H,1.5537553958,0.4769420875,-0.6924748558\H,1.4730369212,
 -0.9790414127,0.3286383223\H,0.8637120999,0.4428063056,2.2925244871\H,
 2.9976427572,1.6869648396,2.5608163495\H,3.3315052711,1.4969396617,0.8

 Normal termination of Gaussian 09 at Fri Mar 21 00:04:55 2025.
