 Gaussian 09, Revision D.01,
 Gaussian 09:  ES64L-G09RevD.01 24-Apr-2013

 ---------------------------------
 #m062X/6-31+G(d) OPT Freq=noraman
 ---------------------------------

 ---------
 bromoform
 ---------
 Symbolic Z-matrix:
 Charge =  0 Multiplicity = 1

 SCF Done:  E(RM062X) =  -7754.04963686     A.U. after   11 cycles
 SCF Done:  E(RM062X) =  -7754.05055334     A.U. after   11 cycles
 SCF Done:  E(RM062X) =  -7754.05084943     A.U. after    9 cycles
 SCF Done:  E(RM062X) =  -7754.05080063     A.U. after    8 cycles
 SCF Done:  E(RM062X) =  -7754.05092676     A.U. after    9 cycles
 SCF Done:  E(RM062X) =  -7754.05093291     A.U. after    8 cycles
 Optimization completed.
    -- Stationary point found.
 Normal termination of Gaussian 09 at Thu Mar 13 15:34:57 2025.

 ---------------------------------------------------------------------
 #N Geom=AllCheck Guess=TCheck SCRF=Check GenChk RM062X/6-31+G(d) Freq
 ---------------------------------------------------------------------

 Structure from the checkpoint file:  "/srv/scratch/z5358697/gauss/Gau-1802768.chk"
 ---------
 bromoform
 ---------
 Charge =  0 Multiplicity = 1

                         Standard orientation:
 ---------------------------------------------------------------------
 Center     Atomic      Atomic             Coordinates (Angstroms)
 Number     Number       Type             X           Y           Z
 ---------------------------------------------------------------------
      1          6           0        0.000762   -0.000414    0.556107
      2         35           0       -0.878342    1.600945   -0.047356
      3         35           0       -0.948762   -1.560280   -0.047385
      4         35           0        1.826937   -0.040591   -0.047447
      5          1           0        0.001255   -0.000126    1.639949
 ---------------------------------------------------------------------

 SCF Done:  E(RM062X) =  -7754.05093291     A.U. after    1 cycles

 The electronic state is 1-A.
 Alpha  occ. eigenvalues -- -485.50274-485.50257-485.50248 -62.78540 -62.78442
 Alpha  occ. eigenvalues --  -62.78429 -57.31731 -57.31717 -57.31708 -57.31435
 Alpha  occ. eigenvalues --  -57.31427 -57.31419 -57.31411 -57.31407 -57.31400
 Alpha  occ. eigenvalues --  -10.72629  -8.95821  -8.95792  -8.95781  -6.91330
 Alpha  occ. eigenvalues --   -6.91318  -6.91309  -6.90165  -6.90164  -6.90152
 Alpha  occ. eigenvalues --   -6.90150  -6.90144  -6.90142  -2.94172  -2.94159
 Alpha  occ. eigenvalues --   -2.94149  -2.93769  -2.93768  -2.93757  -2.93755
 Alpha  occ. eigenvalues --   -2.93749  -2.93746  -2.92738  -2.92738  -2.92725
 Alpha  occ. eigenvalues --   -2.92725  -2.92717  -2.92716  -0.99041  -0.87484
 Alpha  occ. eigenvalues --   -0.87467  -0.72580  -0.56035  -0.50985  -0.50974
 Alpha  occ. eigenvalues --   -0.38980  -0.38964  -0.36775  -0.35981  -0.35967
 Alpha  occ. eigenvalues --   -0.34255
 Alpha virt. eigenvalues --   -0.04287   0.00740   0.00749   0.01041   0.03854
 Alpha virt. eigenvalues --    0.04021   0.04029   0.06917   0.06919   0.07513
 Alpha virt. eigenvalues --    0.08164   0.08172   0.09782   0.10895   0.11643

 Mulliken charges:
               1
     1  C   -0.415947
     2  Br   0.035014
     3  Br   0.035451
     4  Br   0.035654
     5  H    0.309828
 Sum of Mulliken charges =   0.00000

 Dipole moment (field-independent basis, Debye):
    X=              0.0032    Y=             -0.0027    Z=              0.9863  Tot=              0.9863
 Quadrupole moment (field-independent basis, Debye-Ang):
   XX=            -61.3102   YY=            -61.3253   ZZ=            -59.9248
   XY=              0.0025   XZ=              0.0058   YZ=              0.0006

  Exact polarizability:  75.931  -0.001  75.795  -0.026   0.009  49.472
 Approx polarizability:  95.537  -0.003  95.450   0.008  -0.002  69.392

                      1                      2                      3
                      A                      A                      A
 Frequencies --    168.2561               170.5726               243.4063
 Red. masses --     55.7766                56.3826                46.5657
 Frc consts  --      0.9303                 0.9665                 1.6255
 IR Inten    --      0.0042                 0.0034                 0.0042

                      4                      5                      6
                      A                      A                      A
 Frequencies --    569.0664               694.6373               695.9772
 Red. masses --      7.1074                 7.7494                 7.7126
 Frc consts  --      1.3561                 2.2031                 2.2011
 IR Inten    --      0.7931               100.5236               100.1339

                      7                      8                      9
                      A                      A                      A
 Frequencies --   1213.9811              1215.0663              3242.6764
 Red. masses --      1.0797                 1.0793                 1.0885
 Frc consts  --      0.9375                 0.9389                 6.7435
 IR Inten    --     38.7950                39.6782                 7.5255

 - Thermochemistry -
 -------------------
 Temperature   298.150 Kelvin.  Pressure   1.00000 Atm.
 Atom     1 has atomic number  6 and mass  12.00000

 Molecular mass:   249.76283 amu.
 Principal axes and moments of inertia in atomic units:
                           1         2         3
     Eigenvalues --  1433.583221436.453602820.61451
           X            1.00000   0.00000   0.00001
           Y            0.00000   1.00000   0.00000
           Z           -0.00001   0.00000   1.00000
 This molecule is an asymmetric top.
 Rotational symmetry number  1.
 Warning -- assumption of classical behavior for rotation
           may cause significant error
 Rotational temperatures (Kelvin)      0.06042     0.06030     0.03071
 Rotational constants (GHZ):           1.25890     1.25639     0.63984
 Zero-point vibrational energy      49128.5 (Joules/Mol)
                                   11.74199 (Kcal/Mol)
 Warning -- explicit consideration of   4 degrees of freedom as
           vibrations may cause significant error
 Vibrational temperatures:    242.08   245.42   350.21   818.76   999.43
          (Kelvin)           1001.35  1746.65  1748.21  4665.48

 Zero-point correction=                           0.018712 (Hartree/Particle)
 Thermal correction to Energy=                    0.023699
 Thermal correction to Enthalpy=                  0.024644
 Thermal correction to Gibbs Free Energy=        -0.013584
 Sum of electronic and zero-point Energies=          -7754.032221
 Sum of electronic and thermal Energies=             -7754.027233
 Sum of electronic and thermal Enthalpies=           -7754.026289
 Sum of electronic and thermal Free Energies=        -7754.064517

                     E (Thermal)             CV                S
                      KCal/Mol        Cal/Mol-Kelvin    Cal/Mol-Kelvin
 Total                   14.872             14.661             80.457
 Electronic               0.000              0.000              0.000
 Translational            0.889              2.981             42.447
 Rotational               0.889              2.981             30.142
 Vibrational             13.094              8.700              7.869
 Vibration     1          0.625              1.882              2.455
 Vibration     2          0.626              1.879              2.429
 Vibration     3          0.659              1.774              1.778
 Vibration     4          0.925              1.098              0.506

 Normal termination of Gaussian 09 at Thu Mar 13 15:35:45 2025.
