 Gaussian 09, Revision D.01,
 Gaussian 09:  ES64L-G09RevD.01 24-Apr-2013

 ---------------------------------
 #m062X/6-31+G(d) OPT Freq=noraman
 ---------------------------------

 ------------
 bromobenzene
 ------------
 Symbolic Z-matrix:
 Charge =  0 Multiplicity = 1

 SCF Done:  E(RM062X) =  -2803.34766816     A.U. after   13 cycles
 SCF Done:  E(RM062X) =  -2803.34802925     A.U. after   11 cycles
 SCF Done:  E(RM062X) =  -2803.34805496     A.U. after   10 cycles
 Optimization completed.
    -- Stationary point found.
 Normal termination of Gaussian 09 at Sun Mar 16 22:44:02 2025.

 ---------------------------------------------------------------------
 #N Geom=AllCheck Guess=TCheck SCRF=Check GenChk RM062X/6-31+G(d) Freq
 ---------------------------------------------------------------------

 Structure from the checkpoint file:  "/srv/scratch/z5358697/gauss/Gau-2482001.chk"
 ------------
 bromobenzene
 ------------
 Charge =  0 Multiplicity = 1

                         Standard orientation:
 ---------------------------------------------------------------------
 Center     Atomic      Atomic             Coordinates (Angstroms)
 Number     Number       Type             X           Y           Z
 ---------------------------------------------------------------------
      1          6           0       -2.867819    0.000002   -0.000075
      2          6           0       -2.166051    1.203764   -0.000054
      3          6           0       -0.772777    1.211627    0.000123
      4          6           0       -0.089280   -0.000008    0.000297
      5          6           0       -0.772776   -1.211629    0.000119
      6          6           0       -2.166062   -1.203759   -0.000052
      7         35           0        1.794549    0.000000   -0.000049
      8          1           0       -3.953365    0.000012   -0.000206
      9          1           0       -2.701918    2.148368   -0.000178
     10          1           0       -0.221705    2.146243    0.000068
     11          1           0       -0.221719   -2.146259    0.000066
     12          1           0       -2.701922   -2.148365   -0.000170
 ---------------------------------------------------------------------

 SCF Done:  E(RM062X) =  -2803.34805496     A.U. after    1 cycles

 The electronic state is 1-A.
 Alpha  occ. eigenvalues -- -485.48392 -62.76462 -57.29622 -57.29355 -57.29321
 Alpha  occ. eigenvalues --  -10.61871 -10.57328 -10.57327 -10.57166 -10.57156
 Alpha  occ. eigenvalues --  -10.56857  -8.93586  -6.88991  -6.87969  -6.87954
 Alpha  occ. eigenvalues --   -2.91849  -2.91484  -2.91473  -2.90566  -2.90566
 Alpha  occ. eigenvalues --   -0.98799  -0.90539  -0.86237  -0.81867  -0.70880
 Alpha  occ. eigenvalues --   -0.68615  -0.60540  -0.54053  -0.53886  -0.50658
 Alpha  occ. eigenvalues --   -0.49035  -0.46647  -0.42480  -0.41684  -0.38109
 Alpha  occ. eigenvalues --   -0.35069  -0.32343  -0.29931
 Alpha virt. eigenvalues --    0.00382   0.00526   0.00853   0.02223   0.02964
 Alpha virt. eigenvalues --    0.03484   0.05121   0.05566   0.05712   0.06728
 Alpha virt. eigenvalues --    0.07609   0.08621   0.09352   0.09590   0.12009

 Mulliken charges:
               1
     1  C   -0.311626
     2  C   -0.024045
     3  C   -0.433002
     4  C    0.160905
     5  C   -0.432995
     6  C   -0.024054
     7  Br  -0.033332
     8  H    0.212560
     9  H    0.214619
    10  H    0.228176
    11  H    0.228176
    12  H    0.214619
 Sum of Mulliken charges =   0.00000

 Dipole moment (field-independent basis, Debye):
    X=             -1.8862    Y=              0.0000    Z=             -0.0004  Tot=              1.8862
 Quadrupole moment (field-independent basis, Debye-Ang):
   XX=            -49.1126   YY=            -48.3543   ZZ=            -58.0199
   XY=              0.0000   XZ=              0.0005   YZ=              0.0000

  Exact polarizability: 116.123  -0.002  85.505   0.000   0.001  49.539
 Approx polarizability: 139.677   0.000 116.025   0.004   0.000  64.456

                      1                      2                      3
                      A                      A                      A
 Frequencies --    204.7924               261.4374               328.1858
 Red. masses --      4.3765                 5.0805                10.7871
 Frc consts  --      0.1081                 0.2046                 0.6845
 IR Inten    --      0.2711                 0.0206                 1.5058

                      4                      5                      6
                      A                      A                      A
 Frequencies --    422.0622               542.6028               619.5159
 Red. masses --      2.8314                 2.8861                 6.4057
 Frc consts  --      0.2972                 0.5006                 1.4485
 IR Inten    --      0.0000                14.1151                 0.2372

                      7                      8                      9
                      A                      A                      A
 Frequencies --    686.3773               727.0825               794.9573
 Red. masses --      6.6620                 1.4683                 2.0457
 Frc consts  --      1.8492                 0.4573                 0.7617
 IR Inten    --     18.3739                59.3820                22.9316

                     10                     11                     12
                      A                      A                      A
 Frequencies --    864.6177               957.1054               991.4321
 Red. masses --      1.2476                 1.4870                 6.7815
 Frc consts  --      0.5495                 0.8026                 3.9274
 IR Inten    --      0.0000                 2.5638                19.4949

                     13                     14                     15
                      A                      A                      A
 Frequencies --   1006.9966              1035.0552              1063.1243
 Red. masses --      1.3843                 1.4018                 3.1455
 Frc consts  --      0.8270                 0.8849                 2.0946
 IR Inten    --      0.0000                 0.3034                10.9308

                     16                     17                     18
                      A                      A                      A
 Frequencies --   1115.3903              1119.1489              1186.1321
 Red. masses --      1.4998                 2.3254                 1.1039
 Frc consts  --      1.0993                 1.7160                 0.9151
 IR Inten    --      4.4927                20.0934                 0.0013

                     19                     20                     21
                      A                      A                      A
 Frequencies --   1212.7071              1337.8648              1360.1609
 Red. masses --      1.1161                 2.0379                 2.3459
 Frc consts  --      0.9671                 2.1491                 2.5571
 IR Inten    --      0.0212                 0.0301                 1.0673

                     22                     23                     24
                      A                      A                      A
 Frequencies --   1498.5094              1534.0148              1677.3934
 Red. masses --      2.3174                 2.2212                 6.0019
 Frc consts  --      3.0660                 3.0796                 9.9496
 IR Inten    --      8.3880                38.3900                27.9399

                     25                     26                     27
                      A                      A                      A
 Frequencies --   1679.0809              3207.5219              3216.1685
 Red. masses --      6.4998                 1.0857                 1.0904
 Frc consts  --     10.7968                 6.5811                 6.6452
 IR Inten    --      1.4730                 0.0815                 7.1665

                     28                     29                     30
                      A                      A                      A
 Frequencies --   3228.0427              3236.9341              3239.0186
 Red. masses --      1.0947                 1.0951                 1.0973
 Frc consts  --      6.7211                 6.7604                 6.7824
 IR Inten    --      9.1865                 3.2061                 1.9825

 - Thermochemistry -
 -------------------
 Temperature   298.150 Kelvin.  Pressure   1.00000 Atm.
 Atom     1 has atomic number  6 and mass  12.00000

 Molecular mass:   155.95746 amu.
 Principal axes and moments of inertia in atomic units:
                           1         2         3
     Eigenvalues --   316.389421807.651762124.04117
           X            1.00000   0.00000   0.00000
           Y            0.00000   1.00000   0.00000
           Z            0.00000   0.00000   1.00000
 This molecule is an asymmetric top.
 Rotational symmetry number  1.
 Rotational temperatures (Kelvin)      0.27376     0.04792     0.04078
 Rotational constants (GHZ):           5.70418     0.99839     0.84967
 Zero-point vibrational energy     241367.1 (Joules/Mol)
                                   57.68813 (Kcal/Mol)
 Warning -- explicit consideration of   6 degrees of freedom as
           vibrations may cause significant error
 Vibrational temperatures:    294.65   376.15   472.19   607.25   780.68
          (Kelvin)            891.34   987.54  1046.11  1143.76  1243.99
                             1377.06  1426.45  1448.84  1489.21  1529.60
                             1604.80  1610.20  1706.58  1744.81  1924.89
                             1956.97  2156.02  2207.10  2413.39  2415.82
                             4614.90  4627.34  4644.43  4657.22  4660.22

 Zero-point correction=                           0.091932 (Hartree/Particle)
 Thermal correction to Energy=                    0.097460
 Thermal correction to Enthalpy=                  0.098404
 Thermal correction to Gibbs Free Energy=         0.061248
 Sum of electronic and zero-point Energies=          -2803.256123
 Sum of electronic and thermal Energies=             -2803.250595
 Sum of electronic and thermal Enthalpies=           -2803.249651
 Sum of electronic and thermal Free Energies=        -2803.286807

                     E (Thermal)             CV                S
                      KCal/Mol        Cal/Mol-Kelvin    Cal/Mol-Kelvin
 Total                   61.157             20.820             78.202
 Electronic               0.000              0.000              0.000
 Translational            0.889              2.981             41.043
 Rotational               0.889              2.981             28.587
 Vibrational             59.379             14.859              8.572
 Vibration     1          0.640              1.833              2.090
 Vibration     2          0.669              1.743              1.652
 Vibration     3          0.711              1.619              1.269
 Vibration     4          0.784              1.422              0.885
 Vibration     5          0.898              1.156              0.560
 Vibration     6          0.979              0.991              0.417

 Optimization completed.
    -- Stationary point found.
 Normal termination of Gaussian 09 at Sun Mar 16 22:48:03 2025.
