 Gaussian 09, Revision D.01,
 Gaussian 09:  ES64L-G09RevD.01 24-Apr-2013

 ---------------------------------
 #m062X/6-31+G(d) OPT Freq=noraman
 ---------------------------------

 -------------
 chlorobenzene
 -------------
 Symbolic Z-matrix:
 Charge =  0 Multiplicity = 1

 SCF Done:  E(RM062X) =  -691.714053327     A.U. after   14 cycles
 SCF Done:  E(RM062X) =  -691.714576071     A.U. after   11 cycles
 SCF Done:  E(RM062X) =  -691.714640337     A.U. after   10 cycles
 SCF Done:  E(RM062X) =  -691.714641556     A.U. after    8 cycles
 Optimization completed.
    -- Stationary point found.
 Normal termination of Gaussian 09 at Sun Mar 16 22:50:09 2025.

 ---------------------------------------------------------------------
 #N Geom=AllCheck Guess=TCheck SCRF=Check GenChk RM062X/6-31+G(d) Freq
 ---------------------------------------------------------------------

 Structure from the checkpoint file:  "/srv/scratch/z5358697/gauss/Gau-3751153.chk"
 -------------
 chlorobenzene
 -------------
 Charge =  0 Multiplicity = 1

                         Standard orientation:
 ---------------------------------------------------------------------
 Center     Atomic      Atomic             Coordinates (Angstroms)
 Number     Number       Type             X           Y           Z
 ---------------------------------------------------------------------
      1          6           0        2.267392    0.000000    0.000007
      2          6           0        1.568231    1.205740    0.000008
      3          6           0        0.174697    1.213591   -0.000016
      4          6           0       -0.506088   -0.000001   -0.000051
      5          6           0        0.174694   -1.213589   -0.000018
      6          6           0        1.568232   -1.205741    0.000011
      7         17           0       -2.252049    0.000000    0.000016
      8          1           0        3.352974    0.000000    0.000029
      9          1           0        2.106228    2.149115    0.000030
     10          1           0       -0.381774    2.145199   -0.000008
     11          1           0       -0.381771   -2.145200   -0.000011
     12          1           0        2.106224   -2.149117    0.000032
 ---------------------------------------------------------------------

 SCF Done:  E(RM062X) =  -691.714641556     A.U. after    1 cycles

 The electronic state is 1-A.
 Alpha  occ. eigenvalues -- -102.67241 -10.62275 -10.57266 -10.57264 -10.57143
 Alpha  occ. eigenvalues --  -10.57135 -10.56771  -9.81916  -7.54321  -7.53656
 Alpha  occ. eigenvalues --   -7.53643  -1.00217  -0.94213  -0.86224  -0.83393
 Alpha  occ. eigenvalues --   -0.70963  -0.68831  -0.60728  -0.54525  -0.54111
 Alpha  occ. eigenvalues --   -0.50679  -0.50109  -0.47301  -0.42745  -0.42621
 Alpha  occ. eigenvalues --   -0.40314  -0.37922  -0.32307  -0.30437
 Alpha virt. eigenvalues --    0.00591   0.00699   0.01924   0.02796   0.03260
 Alpha virt. eigenvalues --    0.04300   0.05574   0.06628   0.06911   0.07592
 Alpha virt. eigenvalues --    0.09311   0.09615   0.09659   0.10129   0.13180

 Mulliken charges:
               1
     1  C   -0.189328
     2  C   -0.261433
     3  C   -0.277248
     4  C    0.028228
     5  C   -0.277248
     6  C   -0.261433
     7  Cl   0.139790
     8  H    0.211746
     9  H    0.214609
    10  H    0.228854
    11  H    0.228854
    12  H    0.214609
 Sum of Mulliken charges =   0.00000

 Dipole moment (field-independent basis, Debye):
    X=              1.8918    Y=              0.0000    Z=              0.0001  Tot=              1.8918
 Quadrupole moment (field-independent basis, Debye-Ang):
   XX=            -46.2663   YY=            -42.2855   ZZ=            -51.9766
   XY=              0.0000   XZ=              0.0001   YZ=              0.0000

  Exact polarizability: 103.752   0.016  81.456   0.002  -0.002  44.159
 Approx polarizability: 124.827   0.000 107.080   0.000   0.000  54.928

                      1                      2                      3
                      A                      A                      A
 Frequencies --    191.9883               298.6871               417.2988
 Red. masses --      5.0764                 5.7662                 2.9120
 Frc consts  --      0.1102                 0.3031                 0.2988
 IR Inten    --      0.2630                 0.0990                 0.0000

                      4                      5                      6
                      A                      A                      A
 Frequencies --    423.1643               480.9174               623.3190
 Red. masses --     11.3011                 3.2212                 6.4151
 Frc consts  --      1.1923                 0.4389                 1.4685
 IR Inten    --      3.3078                 9.9884                 0.2495

                      7                      8                      9
                      A                      A                      A
 Frequencies --    701.1999               720.5788               760.6070
 Red. masses --      2.4824                 6.7369                 1.4396
 Frc consts  --      0.7191                 2.0610                 0.4907
 IR Inten    --     20.5903                24.0211                70.4228

                     10                     11                     12
                      A                      A                      A
 Frequencies --    858.4233               935.2795               997.6278
 Red. masses --      1.2467                 1.3551                 1.3659
 Frc consts  --      0.5413                 0.6984                 0.8010
 IR Inten    --      0.0000                 2.7671                 0.0000

                     13                     14                     15
                      A                      A                      A
 Frequencies --   1015.3544              1019.6813              1063.6685
 Red. masses --      6.4831                 1.2951                 2.5241
 Frc consts  --      3.9379                 0.7934                 1.6826
 IR Inten    --     11.5419                 0.1192                10.7301

                     16                     17                     18
                      A                      A                      A
 Frequencies --   1113.2177              1133.6237              1185.7510
 Red. masses --      1.4652                 2.8411                 1.1103
 Frc consts  --      1.0698                 2.1512                 0.9198
 IR Inten    --      4.9029                42.8152                 0.0014

                     19                     20                     21
                      A                      A                      A
 Frequencies --   1205.4529              1333.0331              1357.5891
 Red. masses --      1.1221                 1.7321                 3.0077
 Frc consts  --      0.9607                 1.8135                 3.2661
 IR Inten    --      0.0814                 0.0003                 0.4556

                     22                     23                     24
                      A                      A                      A
 Frequencies --   1500.5190              1533.4465              1678.4402
 Red. masses --      2.3384                 2.2655                 6.0489
 Frc consts  --      3.1021                 3.1387                10.0401
 IR Inten    --      6.1212                45.3812                28.0137

                     25                     26                     27
                      A                      A                      A
 Frequencies --   1681.4643              3208.1562              3216.9646
 Red. masses --      6.5692                 1.0862                 1.0905
 Frc consts  --     10.9430                 6.5867                 6.6494
 IR Inten    --      2.0545                 0.0106                 6.6187

                     28                     29                     30
                      A                      A                      A
 Frequencies --   3227.9249              3237.4844              3239.3968
 Red. masses --      1.0948                 1.0952                 1.0973
 Frc consts  --      6.7207                 6.7635                 6.7845
 IR Inten    --     10.1143                 3.3706                 1.0795

 - Thermochemistry -
 -------------------
 Temperature   298.150 Kelvin.  Pressure   1.00000 Atm.
 Atom     1 has atomic number  6 and mass  12.00000

 Molecular mass:   112.00798 amu.
 Principal axes and moments of inertia in atomic units:
                           1         2         3
     Eigenvalues --   317.196701148.917091466.11379
           X            1.00000   0.00000   0.00000
           Y            0.00000   1.00000   0.00000
           Z            0.00000   0.00000   1.00000
 This molecule is an asymmetric top.
 Rotational symmetry number  1.
 Rotational temperatures (Kelvin)      0.27306     0.07539     0.05908
 Rotational constants (GHZ):           5.68966     1.57082     1.23097
 Zero-point vibrational energy     241408.0 (Joules/Mol)
                                   57.69789 (Kcal/Mol)
 Warning -- explicit consideration of   5 degrees of freedom as
           vibrations may cause significant error
 Vibrational temperatures:    276.23   429.74   600.40   608.84   691.93
          (Kelvin)            896.82  1008.87  1036.75  1094.34  1235.08
                             1345.66  1435.36  1460.87  1467.09  1530.38
                             1601.67  1631.03  1706.03  1734.38  1917.93
                             1953.27  2158.91  2206.28  2414.90  2419.25
                             4615.82  4628.49  4644.26  4658.01  4660.76

 Zero-point correction=                           0.091947 (Hartree/Particle)
 Thermal correction to Energy=                    0.097406
 Thermal correction to Enthalpy=                  0.098351
 Thermal correction to Gibbs Free Energy=         0.062196
 Sum of electronic and zero-point Energies=           -691.622694
 Sum of electronic and thermal Energies=              -691.617235
 Sum of electronic and thermal Enthalpies=            -691.616291
 Sum of electronic and thermal Free Energies=         -691.652445

                     E (Thermal)             CV                S
                      KCal/Mol        Cal/Mol-Kelvin    Cal/Mol-Kelvin
 Total                   61.123             20.786             76.093
 Electronic               0.000              0.000              0.000
 Translational            0.889              2.981             40.056
 Rotational               0.889              2.981             27.771
 Vibrational             59.346             14.824              8.266
 Vibration     1          0.634              1.851              2.209
 Vibration     2          0.692              1.676              1.424
 Vibration     3          0.780              1.433              0.901
 Vibration     4          0.785              1.420              0.881
 Vibration     5          0.837              1.292              0.708

 Optimization completed.
    -- Stationary point found.
 Normal termination of Gaussian 09 at Sun Mar 16 22:53:32 2025.
