 Gaussian 09, Revision D.01,
 Gaussian 09:  ES64L-G09RevD.01 24-Apr-2013

 ---------------------------------
 #m062X/6-31+G(d) OPT Freq=noraman
 ---------------------------------

 ---------
 imidazole
 ---------
 Symbolic Z-matrix:
 Charge =  0 Multiplicity = 1

 SCF Done:  E(RM062X) =  -226.129477331     A.U. after   13 cycles
 SCF Done:  E(RM062X) =  -226.129608520     A.U. after   10 cycles
 SCF Done:  E(RM062X) =  -226.129639003     A.U. after    9 cycles
 SCF Done:  E(RM062X) =  -226.129638457     A.U. after    9 cycles
 SCF Done:  E(RM062X) =  -226.129638751     A.U. after    8 cycles
 Optimization completed.
    -- Stationary point found.

 1\1\GINC-KATANA2\FOpt\RM062X\6-31+G(d)\C3H4N2\Z5358697\14-Mar-2025\0\\
 #m062X/6-31+G(d) OPT Freq=noraman\\imidazole\\0,1\C,0.657480826,-0.776
 0704935,-0.3643503657\C,1.9484791772,-0.7684402097,-0.8248673369\N,2.3
 445019838,-2.035806906,-1.1779603128\C,1.3099755008,-2.8030241781,-0.9
 357179003\N,0.2593259829,-2.0903841784,-0.4414364138\H,0.0059274111,0.
 0036651677,-0.0012690109\H,2.6152244443,0.0763350237,-0.9224327919\H,1
 .2610267267,-3.8712461979,-1.0965026099\H,-0.6432420528,-2.4588280279,
 -0.1797632579\\Version=ES64L-G09RevD.01\State=1-A\HF=-226.1296388\RMSD

 Normal termination of Gaussian 09 at Fri Mar 14 16:09:04 2025.

 ---------------------------------------------------------------------
 #N Geom=AllCheck Guess=TCheck SCRF=Check GenChk RM062X/6-31+G(d) Freq
 ---------------------------------------------------------------------

 Structure from the checkpoint file:  "/srv/scratch/z5358697/gauss/Gau-2443222.chk"
 ---------
 imidazole
 ---------
 Charge =  0 Multiplicity = 1

                         Standard orientation:
 ---------------------------------------------------------------------
 Center     Atomic      Atomic             Coordinates (Angstroms)
 Number     Number       Type             X           Y           Z
 ---------------------------------------------------------------------
      1          6           0        0.601280    0.988271    0.000078
      2          6           0        1.136802   -0.273484    0.000001
      3          7           0        0.142645   -1.221840   -0.000066
      4          6           0       -0.980889   -0.547141    0.000146
      5          7           0       -0.760863    0.797338   -0.000164
      6          1           0        1.045922    1.971445    0.000085
      7          1           0        2.180522   -0.553418   -0.000016
      8          1           0       -1.975535   -0.971435    0.000037
      9          1           0       -1.466545    1.519048    0.000150
 ---------------------------------------------------------------------

 SCF Done:  E(RM062X) =  -226.129638751     A.U. after    1 cycles

 The electronic state is 1-A.
 Alpha  occ. eigenvalues --  -14.82849 -14.74652 -10.60722 -10.58327 -10.56256
 Alpha  occ. eigenvalues --   -1.13549  -0.98002  -0.84437  -0.70404  -0.67531
 Alpha  occ. eigenvalues --   -0.64614  -0.51289  -0.51197  -0.50775  -0.47445
 Alpha  occ. eigenvalues --   -0.34704  -0.34299  -0.28819
 Alpha virt. eigenvalues --    0.00845   0.03215   0.04136   0.04564   0.05911
 Alpha virt. eigenvalues --    0.06380   0.06841   0.08610   0.09013   0.10865
 Alpha virt. eigenvalues --    0.10877   0.13511   0.13615   0.15783   0.16649

 Mulliken charges:
               1
     1  C   -0.133048
     2  C   -0.173823
     3  N   -0.303503
     4  C    0.045385
     5  N   -0.523699
     6  H    0.227842
     7  H    0.210238
     8  H    0.216508
     9  H    0.434099
 Sum of Mulliken charges =   0.00000

 Dipole moment (field-independent basis, Debye):
    X=             -1.7132    Y=              3.5250    Z=              0.0006  Tot=              3.9192
 Quadrupole moment (field-independent basis, Debye-Ang):
   XX=            -22.8474   YY=            -29.7505   ZZ=            -32.5578
   XY=             -0.6468   XZ=             -0.0007   YZ=              0.0007

  Exact polarizability:  51.815   0.756  51.578  -0.001   0.000  29.582
 Approx polarizability:  63.729  -1.024  66.510  -0.001   0.000  35.538

                      1                      2                      3
                      A                      A                      A
 Frequencies --    550.0086               650.1834               685.0408
 Red. masses --      1.6494                 1.9831                 2.6989
 Frc consts  --      0.2940                 0.4939                 0.7462
 IR Inten    --    106.9524                14.4620                 2.8376

                      4                      5                      6
                      A                      A                      A
 Frequencies --    733.5680               825.4426               897.6310
 Red. masses --      1.2656                 1.4140                 1.3288
 Frc consts  --      0.4013                 0.5676                 0.6308
 IR Inten    --     50.3654                33.8284                 7.6527

                      7                      8                      9
                      A                      A                      A
 Frequencies --    911.1372               948.4131              1091.9049
 Red. masses --      5.4130                 4.5491                 1.5010
 Frc consts  --      2.6476                 2.4109                 1.0544
 IR Inten    --      5.1204                 2.6132                34.5664

                     10                     11                     12
                      A                      A                      A
 Frequencies --   1120.3347              1167.0912              1194.4794
 Red. masses --      1.4303                 1.3362                 6.4109
 Frc consts  --      1.0577                 1.0723                 5.3893
 IR Inten    --     26.8164                 2.9664                 5.3668

                     13                     14                     15
                      A                      A                      A
 Frequencies --   1295.6696              1406.8518              1474.1191
 Red. masses --      1.3396                 3.6892                 3.1485
 Frc consts  --      1.3250                 4.3020                 4.0311
 IR Inten    --      0.7052                 7.9761                19.0992

                     16                     17                     18
                      A                      A                      A
 Frequencies --   1538.7670              1603.2863              3278.6336
 Red. masses --      3.6038                 3.7134                 1.0978
 Frc consts  --      5.0275                 5.6240                 6.9527
 IR Inten    --     26.7955                15.8350                 1.3875

                     19                     20                     21
                      A                      A                      A
 Frequencies --   3290.3620              3311.7332              3671.5249
 Red. masses --      1.0919                 1.1066                 1.0824
 Frc consts  --      6.9650                 7.1509                 8.5965
 IR Inten    --      1.6147                 2.3585                79.5747

 - Thermochemistry -
 -------------------
 Temperature   298.150 Kelvin.  Pressure   1.00000 Atm.
 Atom     1 has atomic number  6 and mass  12.00000

 Molecular mass:    68.03745 amu.
 Principal axes and moments of inertia in atomic units:
                           1         2         3
     Eigenvalues --   184.34087 191.48508 375.82594
           X           -0.28050   0.95985   0.00000
           Y            0.95985   0.28050   0.00001
           Z           -0.00001   0.00000   1.00000
 This molecule is an asymmetric top.
 Rotational symmetry number  1.
 Rotational temperatures (Kelvin)      0.46986     0.45233     0.23046
 Rotational constants (GHZ):           9.79024     9.42497     4.80207
 Zero-point vibrational energy     189286.2 (Joules/Mol)
                                   45.24049 (Kcal/Mol)
 Warning -- explicit consideration of   1 degrees of freedom as
           vibrations may cause significant error
 Vibrational temperatures:    791.34   935.47   985.62  1055.44  1187.63
          (Kelvin)           1291.49  1310.92  1364.55  1571.01  1611.91
                             1679.18  1718.59  1864.18  2024.14  2120.93
                             2213.94  2306.77  4717.22  4734.09  4764.84
                             5282.50

 Zero-point correction=                           0.072095 (Hartree/Particle)
 Thermal correction to Energy=                    0.075810
 Thermal correction to Enthalpy=                  0.076754
 Thermal correction to Gibbs Free Energy=         0.045850
 Sum of electronic and zero-point Energies=           -226.057543
 Sum of electronic and thermal Energies=              -226.053829
 Sum of electronic and thermal Enthalpies=            -226.052885
 Sum of electronic and thermal Free Energies=         -226.083788

                     E (Thermal)             CV                S
                      KCal/Mol        Cal/Mol-Kelvin    Cal/Mol-Kelvin
 Total                   47.571             13.127             65.042
 Electronic               0.000              0.000              0.000
 Translational            0.889              2.981             38.570
 Rotational               0.889              2.981             24.099
 Vibrational             45.794              7.166              2.373
 Vibration     1          0.905              1.140              0.544

 Optimization completed.
    -- Stationary point found.

 1\1\GINC-KATANA2\Freq\RM062X\6-31+G(d)\C3H4N2\Z5358697\14-Mar-2025\0\\
 #N Geom=AllCheck Guess=TCheck SCRF=Check GenChk RM062X/6-31+G(d) Freq\
 \imidazole\\0,1\C,0.657480826,-0.7760704935,-0.3643503657\C,1.94847917
 72,-0.7684402097,-0.8248673369\N,2.3445019838,-2.035806906,-1.17796031
 28\C,1.3099755008,-2.8030241781,-0.9357179003\N,0.2593259829,-2.090384
 1784,-0.4414364138\H,0.0059274111,0.0036651677,-0.0012690109\H,2.61522
 44443,0.0763350237,-0.9224327919\H,1.2610267267,-3.8712461979,-1.09650
 26099\H,-0.6432420528,-2.4588280279,-0.1797632579\\Version=ES64L-G09Re

 Normal termination of Gaussian 09 at Fri Mar 14 16:10:13 2025.
