 Gaussian 09, Revision D.01,
 Gaussian 09:  ES64L-G09RevD.01 24-Apr-2013

 ---------------------------------
 #m062X/6-31+G(d) OPT Freq=noraman
 ---------------------------------

 -------------------------------------------
 5-(trifluoromethyl)-1H-pyrimidine-2,4-dione
 -------------------------------------------
 Symbolic Z-matrix:
 Charge =  0 Multiplicity = 1

 SCF Done:  E(RM062X) =  -751.616670672     A.U. after   14 cycles
 SCF Done:  E(RM062X) =  -751.620289374     A.U. after   12 cycles
 SCF Done:  E(RM062X) =  -751.620591553     A.U. after   11 cycles
 SCF Done:  E(RM062X) =  -751.620641375     A.U. after   11 cycles
 SCF Done:  E(RM062X) =  -751.620647706     A.U. after   10 cycles
 SCF Done:  E(RM062X) =  -751.620649099     A.U. after   10 cycles
 SCF Done:  E(RM062X) =  -751.620651038     A.U. after    9 cycles
 Optimization completed.
    -- Stationary point found.
 Normal termination of Gaussian 09 at Mon Mar 17 19:11:44 2025.

 ---------------------------------------------------------------------
 #N Geom=AllCheck Guess=TCheck SCRF=Check GenChk RM062X/6-31+G(d) Freq
 ---------------------------------------------------------------------

 Structure from the checkpoint file:  "/srv/scratch/z5358697/gauss/Gau-2203635.chk"
 -------------------------------------------
 5-(trifluoromethyl)-1H-pyrimidine-2,4-dione
 -------------------------------------------
 Charge =  0 Multiplicity = 1

                         Standard orientation:
 ---------------------------------------------------------------------
 Center     Atomic      Atomic             Coordinates (Angstroms)
 Number     Number       Type             X           Y           Z
 ---------------------------------------------------------------------
      1          6           0        0.371398   -1.337081    0.000025
      2          6           0       -0.345373   -0.195108    0.000016
      3          6           0        0.341171    1.101325    0.000077
      4          8           0       -0.195621    2.185684   -0.000003
      5          7           0        1.739804    0.986697   -0.000005
      6          6           0        2.502021   -0.163587   -0.000106
      7          8           0        3.711289   -0.181461    0.000023
      8          7           0        1.735653   -1.328076    0.000010
      9          6           0       -1.840875   -0.210333   -0.000007
     10          9           0       -2.305478   -1.478305   -0.000041
     11          9           0       -2.350008    0.396309    1.079434
     12          9           0       -2.349986    0.396369   -1.079427
     13          1           0       -0.100599   -2.313832    0.000043
     14          1           0        2.260166    1.859145    0.000002
     15          1           0        2.266073   -2.190102    0.000036
 ---------------------------------------------------------------------

 SCF Done:  E(RM062X) =  -751.620651038     A.U. after    1 cycles

 The electronic state is 1-A.
 Alpha  occ. eigenvalues --  -25.31653 -25.30713 -25.30713 -19.66075 -19.65668
 Alpha  occ. eigenvalues --  -14.86696 -14.84606 -10.82997 -10.73971 -10.70824
 Alpha  occ. eigenvalues --  -10.67298 -10.61157  -1.47840  -1.38678  -1.38180
 Alpha  occ. eigenvalues --   -1.23690  -1.20541  -1.12893  -1.06879  -0.95821
 Alpha  occ. eigenvalues --   -0.84303  -0.80462  -0.78429  -0.73830  -0.71068
 Alpha  occ. eigenvalues --   -0.70058  -0.66664  -0.64235  -0.62900  -0.59581
 Alpha  occ. eigenvalues --   -0.58137  -0.58059  -0.57659  -0.54773  -0.54056
 Alpha  occ. eigenvalues --   -0.53936  -0.52437  -0.51898  -0.51065  -0.49321
 Alpha  occ. eigenvalues --   -0.47182  -0.40453  -0.37870  -0.37246  -0.34091
 Alpha virt. eigenvalues --   -0.04102  -0.01647   0.01066   0.01455   0.02488
 Alpha virt. eigenvalues --    0.02662   0.04020   0.05422   0.05496   0.06458
 Alpha virt. eigenvalues --    0.07466   0.08131   0.08700   0.10457   0.10615

 Mulliken charges:
               1
     1  C   -0.366515
     2  C    0.220043
     3  C    0.533578
     4  O   -0.461112
     5  N   -0.766121
     6  C    0.702770
     7  O   -0.499232
     8  N   -0.631902
     9  C    0.916888
    10  F   -0.359793
    11  F   -0.261999
    12  F   -0.262002
    13  H    0.273380
    14  H    0.482797
    15  H    0.479219
 Sum of Mulliken charges =   0.00000

 Dipole moment (field-independent basis, Debye):
    X=              1.6694    Y=             -4.1191    Z=              0.0000  Tot=              4.4445
 Quadrupole moment (field-independent basis, Debye-Ang):
   XX=            -81.4695   YY=            -61.2823   ZZ=            -66.9888
   XY=              0.9508   XZ=             -0.0005   YZ=              0.0000

  Exact polarizability:  99.938  -9.966  83.931   0.000   0.000  46.943
 Approx polarizability: 112.925 -17.676 107.991   0.001  -0.001  60.265

                      1                      2                      3
                      A                      A                      A
 Frequencies --     65.4066                84.1566               150.7402
 Red. masses --     12.5334                10.2331                 9.0299
 Frc consts  --      0.0316                 0.0427                 0.1209
 IR Inten    --      0.6343                 2.3660                 0.6353

                      4                      5                      6
                      A                      A                      A
 Frequencies --    167.9182               187.4103               301.9870
 Red. masses --     12.9469                12.5007                14.3336
 Frc consts  --      0.2151                 0.2587                 0.7702
 IR Inten    --      1.0893                 0.1855                 0.4174

                      7                      8                      9
                      A                      A                      A
 Frequencies --    354.6844               385.9737               410.5465
 Red. masses --     16.2537                 3.4307                12.0199
 Frc consts  --      1.2047                 0.3011                 1.1936
 IR Inten    --      4.0320                24.9597                26.9544

                     10                     11                     12
                      A                      A                      A
 Frequencies --    437.6426               537.9601               548.9987
 Red. masses --      8.4826                11.5742                 9.8223
 Frc consts  --      0.9572                 1.9735                 1.7442
 IR Inten    --      1.3472                 0.9703                 7.5638

                     13                     14                     15
                      A                      A                      A
 Frequencies --    578.3298               594.0128               616.3635
 Red. masses --      1.9630                 2.0879                 8.7685
 Frc consts  --      0.3868                 0.4341                 1.9627
 IR Inten    --     14.3635                49.2757                59.0950

                     16                     17                     18
                      A                      A                      A
 Frequencies --    646.2840               672.6431               755.3269
 Red. masses --      6.4368                 1.1799                10.9726
 Frc consts  --      1.5840                 0.3145                 3.6883
 IR Inten    --      2.1806                99.3428                55.1289

                     19                     20                     21
                      A                      A                      A
 Frequencies --    772.0290               783.3075               805.2892
 Red. masses --     10.9597                 9.8355                 9.4277
 Frc consts  --      3.8487                 3.5556                 3.6021
 IR Inten    --      3.9332                 5.3803                 0.0853

                     22                     23                     24
                      A                      A                      A
 Frequencies --    962.0242               994.5067              1074.5374
 Red. masses --      1.3968                 3.0862                 6.9758
 Frc consts  --      0.7617                 1.7984                 4.7456
 IR Inten    --     18.0342                10.9492               145.3895

                     25                     26                     27
                      A                      A                      A
 Frequencies --   1183.6552              1236.2818              1248.3309
 Red. masses --      3.6329                 2.7744                 3.2863
 Frc consts  --      2.9989                 2.4983                 3.0173
 IR Inten    --    123.9237               163.5092               112.0075

                     28                     29                     30
                      A                      A                      A
 Frequencies --   1248.3331              1387.8132              1398.4610
 Red. masses --      7.0465                 6.1264                 2.0705
 Frc consts  --      6.4697                 6.9521                 2.3858
 IR Inten    --    241.2958                22.4324               105.9515

                     31                     32                     33
                      A                      A                      A
 Frequencies --   1426.5439              1460.1339              1541.0685
 Red. masses --      1.7338                 3.7494                 3.4056
 Frc consts  --      2.0789                 4.7097                 4.7653
 IR Inten    --     25.0641               187.4223               254.0369

                     34                     35                     36
                      A                      A                      A
 Frequencies --   1748.3887              1849.0484              1876.7622
 Red. masses --      6.6472                 9.3137                 9.5001
 Frc consts  --     11.9719                18.7615                19.7150
 IR Inten    --    165.9593               967.2147               579.8871

                     37                     38                     39
                      A                      A                      A
 Frequencies --   3258.5794              3602.2174              3652.1885
 Red. masses --      1.0951                 1.0781                 1.0796
 Frc consts  --      6.8513                 8.2423                 8.4841
 IR Inten    --      1.8199                95.6858               142.3422

 - Thermochemistry -
 -------------------
 Temperature   298.150 Kelvin.  Pressure   1.00000 Atm.
 Atom     1 has atomic number  6 and mass  12.00000

 Molecular mass:   180.01466 amu.
 Principal axes and moments of inertia in atomic units:
                           1         2         3
     Eigenvalues --   921.442882822.833283428.07459
           X            0.99999  -0.00412   0.00000
           Y            0.00412   0.99999   0.00000
           Z            0.00000   0.00000   1.00000
 This molecule is an asymmetric top.
 Rotational symmetry number  1.
 Warning -- assumption of classical behavior for rotation
           may cause significant error
 Rotational temperatures (Kelvin)      0.09400     0.03068     0.02527
 Rotational constants (GHZ):           1.95860     0.63934     0.52646
 Zero-point vibrational energy     245269.7 (Joules/Mol)
                                   58.62086 (Kcal/Mol)
 Warning -- explicit consideration of  15 degrees of freedom as
           vibrations may cause significant error
 Vibrational temperatures:     94.11   121.08   216.88   241.60   269.64
          (Kelvin)            434.49   510.31   555.33   590.68   629.67
                              774.00   789.89   832.09   854.65   886.81
                              929.86   967.78  1086.75  1110.78  1127.00
                             1158.63  1384.14  1430.87  1546.02  1703.01
                             1778.73  1796.07  1796.07  1996.75  2012.07
                             2052.48  2100.80  2217.25  2515.54  2660.36
                             2700.24  4688.36  5182.78  5254.68

 Zero-point correction=                           0.093418 (Hartree/Particle)
 Thermal correction to Energy=                    0.103003
 Thermal correction to Enthalpy=                  0.103948
 Thermal correction to Gibbs Free Energy=         0.057655
 Sum of electronic and zero-point Energies=           -751.527233
 Sum of electronic and thermal Energies=              -751.517648
 Sum of electronic and thermal Enthalpies=            -751.516703
 Sum of electronic and thermal Free Energies=         -751.562996

                     E (Thermal)             CV                S
                      KCal/Mol        Cal/Mol-Kelvin    Cal/Mol-Kelvin
 Total                   64.636             35.487             97.430
 Electronic               0.000              0.000              0.000
 Translational            0.889              2.981             41.470
 Rotational               0.889              2.981             30.568
 Vibrational             62.858             29.525             25.392
 Vibration     1          0.597              1.971              4.287
 Vibration     2          0.601              1.960              3.792
 Vibration     3          0.618              1.902              2.663
 Vibration     4          0.625              1.882              2.459
 Vibration     5          0.632              1.857              2.253
 Vibration     6          0.694              1.670              1.406
 Vibration     7          0.731              1.566              1.145
 Vibration     8          0.755              1.500              1.016
 Vibration     9          0.775              1.447              0.925
 Vibration    10          0.798              1.388              0.834
 Vibration    11          0.893              1.166              0.570
 Vibration    12          0.904              1.142              0.546
 Vibration    13          0.935              1.078              0.488
 Vibration    14          0.952              1.045              0.460
 Vibration    15          0.976              0.997              0.422

 Optimization completed.
    -- Stationary point found.
 Normal termination of Gaussian 09 at Mon Mar 17 19:22:32 2025.
