 Gaussian 09, Revision D.01,
 Gaussian 09:  ES64L-G09RevD.01 24-Apr-2013

 ---------------------------------
 #m062X/6-31+G(d) OPT Freq=noraman
 ---------------------------------

 --------------
 3-chlorophenol
 --------------
 Symbolic Z-matrix:
 Charge =  0 Multiplicity = 1

 SCF Done:  E(RM062X) =  -766.910028983     A.U. after   14 cycles
 SCF Done:  E(RM062X) =  -766.911342184     A.U. after   12 cycles
 SCF Done:  E(RM062X) =  -766.911449500     A.U. after   12 cycles
 SCF Done:  E(RM062X) =  -766.911456333     A.U. after   10 cycles
 Optimization completed.
    -- Stationary point found.
 Normal termination of Gaussian 09 at Fri Mar 21 11:03:24 2025.

 ---------------------------------------------------------------------
 #N Geom=AllCheck Guess=TCheck SCRF=Check GenChk RM062X/6-31+G(d) Freq
 ---------------------------------------------------------------------

 Structure from the checkpoint file:  "/srv/scratch/z5358697/gauss/Gau-3997418.chk"
 --------------
 3-chlorophenol
 --------------
 Charge =  0 Multiplicity = 1

                         Standard orientation:
 ---------------------------------------------------------------------
 Center     Atomic      Atomic             Coordinates (Angstroms)
 Number     Number       Type             X           Y           Z
 ---------------------------------------------------------------------
      1          6           0        0.770335    1.816434   -0.000001
      2          6           0        1.803973    0.883343    0.000002
      3          6           0        1.498098   -0.478117    0.000007
      4          6           0        0.170648   -0.906959    0.000006
      5          6           0       -0.837039    0.047540    0.000003
      6          6           0       -0.561918    1.413293    0.000000
      7         17           0       -2.497173   -0.486852   -0.000001
      8          8           0        2.453733   -1.447826   -0.000013
      9          1           0        1.007690    2.876114   -0.000001
     10          1           0        2.841099    1.210071   -0.000015
     11          1           0       -0.053260   -1.967943   -0.000006
     12          1           0       -1.372059    2.133669   -0.000021
     13          1           0        3.334043   -1.046023    0.000051
 ---------------------------------------------------------------------

 SCF Done:  E(RM062X) =  -766.911456333     A.U. after    1 cycles

 The electronic state is 1-A.
 Alpha  occ. eigenvalues -- -102.67236 -19.69139 -10.63483 -10.62534 -10.57606
 Alpha  occ. eigenvalues --  -10.56973 -10.56762 -10.56657  -9.81911  -7.54318
 Alpha  occ. eigenvalues --   -7.53651  -7.53634  -1.20301  -1.00190  -0.94152
 Alpha  occ. eigenvalues --   -0.86137  -0.83550  -0.71923  -0.71016  -0.62493
 Alpha  occ. eigenvalues --   -0.59263  -0.56372  -0.52407  -0.50958  -0.50597
 Alpha  occ. eigenvalues --   -0.48608  -0.45289  -0.44677  -0.42392  -0.39226
 Alpha  occ. eigenvalues --   -0.37995  -0.31212  -0.29257
 Alpha virt. eigenvalues --    0.00378   0.00580   0.01989   0.02303   0.02758
 Alpha virt. eigenvalues --    0.04508   0.04990   0.06254   0.06543   0.07216
 Alpha virt. eigenvalues --    0.09225   0.09580   0.09938   0.10304   0.12773

 Mulliken charges:
               1
     1  C   -0.402225
     2  C    0.063415
     3  C    0.028701
     4  C   -0.150323
     5  C   -0.008731
     6  C   -0.385602
     7  Cl   0.160580
     8  O   -0.675097
     9  H    0.216055
    10  H    0.195809
    11  H    0.241886
    12  H    0.227069
    13  H    0.488464
 Sum of Mulliken charges =   0.00000

 Dipole moment (field-independent basis, Debye):
    X=              2.6948    Y=              1.6699    Z=              0.0001  Tot=              3.1703
 Quadrupole moment (field-independent basis, Debye-Ang):
   XX=            -45.7315   YY=            -51.4676   ZZ=            -57.2754
   XY=              1.5768   XZ=              0.0004   YZ=             -0.0002

  Exact polarizability: 110.689   2.188  88.538   0.000   0.000  46.232
 Approx polarizability: 132.285   1.087 115.155   0.000   0.000  57.981

                      1                      2                      3
                      A                      A                      A
 Frequencies --    184.0416               234.5970               249.9303
 Red. masses --      5.5195                 4.4192                 8.6835
 Frc consts  --      0.1101                 0.1433                 0.3196
 IR Inten    --      1.8407                 0.3226                 0.9747

                      4                      5                      6
                      A                      A                      A
 Frequencies --    392.3595               414.9828               449.5837
 Red. masses --      1.1042                10.8083                 4.0067
 Frc consts  --      0.1002                 1.0967                 0.4772
 IR Inten    --    125.9275                 3.2088                 9.2801

                      7                      8                      9
                      A                      A                      A
 Frequencies --    457.3829               536.1538               591.3548
 Red. masses --      3.0895                 7.1302                 4.9221
 Frc consts  --      0.3808                 1.2076                 1.0141
 IR Inten    --      0.8835                 2.1990                 0.3364

                     10                     11                     12
                      A                      A                      A
 Frequencies --    679.4848               701.2726               785.4570
 Red. masses --      2.4729                 7.3610                 1.3977
 Frc consts  --      0.6727                 2.1329                 0.5080
 IR Inten    --     15.6269                 7.3991                62.0491

                     13                     14                     15
                      A                      A                      A
 Frequencies --    886.4631               895.5873               918.1850
 Red. masses --      1.3755                 1.4457                 5.9544
 Frc consts  --      0.6368                 0.6832                 2.9577
 IR Inten    --      0.0036                21.1692               101.0692

                     16                     17                     18
                      A                      A                      A
 Frequencies --    994.0472              1015.9379              1111.9273
 Red. masses --      1.2924                 5.5447                 1.8604
 Frc consts  --      0.7524                 3.3718                 1.3552
 IR Inten    --      0.0001                 2.5129                26.9776

                     19                     20                     21
                      A                      A                      A
 Frequencies --   1128.2448              1189.8939              1210.7662
 Red. masses --      1.4650                 1.1430                 1.2927
 Frc consts  --      1.0987                 0.9535                 1.1165
 IR Inten    --      1.7559                 7.7946               118.8139

                     22                     23                     24
                      A                      A                      A
 Frequencies --   1300.9605              1342.3158              1362.7552
 Red. masses --      1.9230                 1.8995                 5.4943
 Frc consts  --      1.9176                 2.0165                 6.0117
 IR Inten    --      7.4663               104.0465                21.5676

                     25                     26                     27
                      A                      A                      A
 Frequencies --   1520.3846              1538.7806              1680.7854
 Red. masses --      2.7848                 2.9300                 6.8821
 Frc consts  --      3.7928                 4.0876                11.4550
 IR Inten    --     25.1062               107.7583                57.4880

                     28                     29                     30
                      A                      A                      A
 Frequencies --   1695.7162              3209.6281              3230.4601
 Red. masses --      6.5460                 1.0896                 1.0907
 Frc consts  --     11.0900                 6.6137                 6.7065
 IR Inten    --    141.9026                 8.8014                 4.3990

                     31                     32                     33
                      A                      A                      A
 Frequencies --   3243.7291              3253.8328              3811.7695
 Red. masses --      1.0973                 1.0932                 1.0664
 Frc consts  --      6.8022                 6.8196                 9.1292
 IR Inten    --      2.8134                 0.9002                79.1683

 - Thermochemistry -
 -------------------
 Temperature   298.150 Kelvin.  Pressure   1.00000 Atm.
 Atom     1 has atomic number  6 and mass  12.00000

 Molecular mass:   128.00289 amu.
 Principal axes and moments of inertia in atomic units:
                           1         2         3
     Eigenvalues --   523.815191506.133992029.94918
           X            0.99999  -0.00341   0.00000
           Y            0.00341   0.99999   0.00000
           Z            0.00000   0.00000   1.00000
 This molecule is an asymmetric top.
 Rotational symmetry number  1.
 Warning -- assumption of classical behavior for rotation
           may cause significant error
 Rotational temperatures (Kelvin)      0.16535     0.05751     0.04267
 Rotational constants (GHZ):           3.44538     1.19826     0.88906
 Zero-point vibrational energy     252524.3 (Joules/Mol)
                                   60.35476 (Kcal/Mol)
 Warning -- explicit consideration of   9 degrees of freedom as
           vibrations may cause significant error
 Vibrational temperatures:    264.79   337.53   359.59   564.52   597.07
          (Kelvin)            646.85   658.07   771.40   850.83   977.63
                             1008.97  1130.10  1275.42  1288.55  1321.06
                             1430.21  1461.71  1599.81  1623.29  1711.99
                             1742.02  1871.79  1931.29  1960.70  2187.49
                             2213.96  2418.27  2439.75  4617.93  4647.91
                             4667.00  4681.53  5484.28

 Zero-point correction=                           0.096181 (Hartree/Particle)
 Thermal correction to Energy=                    0.102765
 Thermal correction to Enthalpy=                  0.103709
 Thermal correction to Gibbs Free Energy=         0.065012
 Sum of electronic and zero-point Energies=           -766.815275
 Sum of electronic and thermal Energies=              -766.808691
 Sum of electronic and thermal Enthalpies=            -766.807747
 Sum of electronic and thermal Free Energies=         -766.846444

                     E (Thermal)             CV                S
                      KCal/Mol        Cal/Mol-Kelvin    Cal/Mol-Kelvin
 Total                   64.486             25.384             81.445
 Electronic               0.000              0.000              0.000
 Translational            0.889              2.981             40.454
 Rotational               0.889              2.981             28.862
 Vibrational             62.708             19.423             12.129
 Vibration     1          0.631              1.862              2.287
 Vibration     2          0.654              1.788              1.843
 Vibration     3          0.663              1.763              1.731
 Vibration     4          0.760              1.487              0.991
 Vibration     5          0.778              1.438              0.909
 Vibration     6          0.808              1.362              0.797
 Vibration     7          0.816              1.345              0.774
 Vibration     8          0.891              1.170              0.574
 Vibration     9          0.949              1.050              0.465

 Optimization completed.
    -- Stationary point found.
 Normal termination of Gaussian 09 at Fri Mar 21 11:08:25 2025.
