 Gaussian 09, Revision D.01,
 Gaussian 09:  ES64L-G09RevD.01 24-Apr-2013

 ---------------------------------
 #m062X/6-31+G(d) OPT Freq=noraman
 ---------------------------------

 ----------
 prop-1-yne
 ----------
 Symbolic Z-matrix:
 Charge =  0 Multiplicity = 1

 SCF Done:  E(RM062X) =  -116.597647049     A.U. after   11 cycles
 SCF Done:  E(RM062X) =  -116.597724678     A.U. after   10 cycles
 SCF Done:  E(RM062X) =  -116.597721617     A.U. after    9 cycles
 SCF Done:  E(RM062X) =  -116.597722708     A.U. after   10 cycles
 SCF Done:  E(RM062X) =  -116.597727160     A.U. after    9 cycles
 Optimization completed.
    -- Stationary point found.
 Normal termination of Gaussian 09 at Thu Mar 20 15:28:52 2025.

 ---------------------------------------------------------------------
 #N Geom=AllCheck Guess=TCheck SCRF=Check GenChk RM062X/6-31+G(d) Freq
 ---------------------------------------------------------------------

 Structure from the checkpoint file:  "/srv/scratch/z5358697/gauss/Gau-1685178.chk"
 ----------
 prop-1-yne
 ----------
 Charge =  0 Multiplicity = 1

                         Standard orientation:
 ---------------------------------------------------------------------
 Center     Atomic      Atomic             Coordinates (Angstroms)
 Number     Number       Type             X           Y           Z
 ---------------------------------------------------------------------
      1          6           0        1.244379   -0.000105   -0.000065
      2          6           0       -0.219029    0.000319    0.000163
      3          6           0       -1.425296   -0.000107    0.000038
      4          1           0        1.630896   -0.168952   -1.009184
      5          1           0        1.630899    0.958283    0.358268
      6          1           0        1.630785   -0.789669    0.650686
      7          1           0       -2.492903   -0.000300   -0.000590
 ---------------------------------------------------------------------

 SCF Done:  E(RM062X) =  -116.597727160     A.U. after    1 cycles

 The electronic state is 1-A.
 Alpha  occ. eigenvalues --  -10.56923 -10.55562 -10.54183  -0.87957  -0.79283
 Alpha  occ. eigenvalues --   -0.60272  -0.51748  -0.50190  -0.50189  -0.32885
 Alpha  occ. eigenvalues --   -0.32885
 Alpha virt. eigenvalues --    0.02794   0.03650   0.05397   0.05398   0.06912
 Alpha virt. eigenvalues --    0.07897   0.07899   0.11849   0.11852   0.12759
 Alpha virt. eigenvalues --    0.16690   0.16693   0.21807   0.22079   0.24844

 Mulliken charges:
               1
     1  C   -0.980666
     2  C    0.495906
     3  C   -0.502688
     4  H    0.239987
     5  H    0.239947
     6  H    0.239954
     7  H    0.267561
 Sum of Mulliken charges =   0.00000

 Dipole moment (field-independent basis, Debye):
    X=              0.7643    Y=             -0.0004    Z=             -0.0011  Tot=              0.7643
 Quadrupole moment (field-independent basis, Debye-Ang):
   XX=            -13.8655   YY=            -19.8909   ZZ=            -19.8910
   XY=              0.0008   XZ=              0.0017   YZ=              0.0000

  Exact polarizability:  48.234   0.023  22.389   0.001   0.018  22.380
 Approx polarizability:  58.466   0.013  23.609   0.001   0.000  23.607

                      1                      2                      3
                      A                      A                      A
 Frequencies --    361.6937               361.9514               682.8637
 Red. masses --      3.0162                 3.0188                 1.2463
 Frc consts  --      0.2325                 0.2330                 0.3424
 IR Inten    --     10.1712                10.2585                62.6876

                      4                      5                      6
                      A                      A                      A
 Frequencies --    682.8888               956.7548              1069.0990
 Red. masses --      1.2463                 4.0211                 1.4115
 Frc consts  --      0.3424                 2.1687                 0.9505
 IR Inten    --     62.6753                 0.7132                 0.6740

                      7                      8                      9
                      A                      A                      A
 Frequencies --   1070.7011              1435.9326              1503.7792
 Red. masses --      1.4092                 1.2382                 1.0388
 Frc consts  --      0.9518                 1.5042                 1.3840
 IR Inten    --      0.7021                 0.0600                 8.6434

                     10                     11                     12
                      A                      A                      A
 Frequencies --   1505.9162              2271.9811              3083.4696
 Red. masses --      1.0393                 5.8369                 1.0350
 Frc consts  --      1.3887                17.7516                 5.7979
 IR Inten    --      8.8333                 7.1070                13.3007

                     13                     14                     15
                      A                      A                      A
 Frequencies --   3154.3146              3161.7180              3494.6944
 Red. masses --      1.1022                 1.1019                 1.1658
 Frc consts  --      6.4616                 6.4899                 8.3889
 IR Inten    --      4.3834                 4.7927                62.6011

 - Thermochemistry -
 -------------------
 Temperature   298.150 Kelvin.  Pressure   1.00000 Atm.
 Atom     1 has atomic number  6 and mass  12.00000

 Molecular mass:    40.03130 amu.
 Principal axes and moments of inertia in atomic units:
                           1         2         3
     Eigenvalues --    11.30316 211.69519 211.69602
           X            1.00000   0.00000   0.00002
           Y            0.00000   1.00000  -0.00134
           Z           -0.00002   0.00134   1.00000
 This molecule is an asymmetric top.
 Rotational symmetry number  1.
 Rotational temperatures (Kelvin)      7.66279     0.40914     0.40914
 Rotational constants (GHZ):         159.66691     8.52519     8.52515
 Zero-point vibrational energy     148323.5 (Joules/Mol)
                                   35.45017 (Kcal/Mol)
 Warning -- explicit consideration of   2 degrees of freedom as
           vibrations may cause significant error
 Vibrational temperatures:    520.40   520.77   982.49   982.52  1376.56
          (Kelvin)           1538.19  1540.50  2065.98  2163.60  2166.67
                             3268.87  4436.42  4538.35  4549.00  5028.08

 Zero-point correction=                           0.056493 (Hartree/Particle)
 Thermal correction to Energy=                    0.060378
 Thermal correction to Enthalpy=                  0.061322
 Thermal correction to Gibbs Free Energy=         0.032331
 Sum of electronic and zero-point Energies=           -116.541234
 Sum of electronic and thermal Energies=              -116.537349
 Sum of electronic and thermal Enthalpies=            -116.536405
 Sum of electronic and thermal Free Energies=         -116.565396

                     E (Thermal)             CV                S
                      KCal/Mol        Cal/Mol-Kelvin    Cal/Mol-Kelvin
 Total                   37.888             12.074             61.017
 Electronic               0.000              0.000              0.000
 Translational            0.889              2.981             36.989
 Rotational               0.889              2.981             20.854
 Vibrational             36.110              6.112              3.174
 Vibration     1          0.736              1.551              1.115
 Vibration     2          0.736              1.551              1.114

 Optimization completed.
    -- Stationary point found.
 Normal termination of Gaussian 09 at Thu Mar 20 15:29:15 2025.
