 Gaussian 09, Revision D.01,
 Gaussian 09:  ES64L-G09RevD.01 24-Apr-2013

 ---------------------------------
 #m062X/6-31+G(d) OPT Freq=noraman
 ---------------------------------

 --------------
 4-fluorophenol
 --------------
 Symbolic Z-matrix:
 Charge =  0 Multiplicity = 1

 SCF Done:  E(RM062X) =  -406.551415572     A.U. after   14 cycles
 SCF Done:  E(RM062X) =  -406.552477812     A.U. after   11 cycles
 SCF Done:  E(RM062X) =  -406.552574279     A.U. after   11 cycles
 SCF Done:  E(RM062X) =  -406.552582626     A.U. after   10 cycles
 Optimization completed.
    -- Stationary point found.
 Normal termination of Gaussian 09 at Fri Mar 21 11:11:08 2025.

 ---------------------------------------------------------------------
 #N Geom=AllCheck Guess=TCheck SCRF=Check GenChk RM062X/6-31+G(d) Freq
 ---------------------------------------------------------------------

 Structure from the checkpoint file:  "/srv/scratch/z5358697/gauss/Gau-4130387.chk"
 --------------
 4-fluorophenol
 --------------
 Charge =  0 Multiplicity = 1

                         Standard orientation:
 ---------------------------------------------------------------------
 Center     Atomic      Atomic             Coordinates (Angstroms)
 Number     Number       Type             X           Y           Z
 ---------------------------------------------------------------------
      1          6           0       -0.691561   -1.198107   -0.000007
      2          6           0        0.702671   -1.213026   -0.000006
      3          6           0        1.381822   -0.007091    0.000008
      4          6           0        0.718563    1.211202   -0.000006
      5          6           0       -0.672043    1.220021   -0.000009
      6          6           0       -1.377569    0.015947    0.000004
      7          8           0       -2.740738    0.095568    0.000015
      8          9           0        2.733297   -0.016797    0.000009
      9          1           0       -1.241634   -2.136434   -0.000013
     10          1           0        1.259048   -2.144294   -0.000029
     11          1           0        1.290422    2.133137   -0.000013
     12          1           0       -1.227097    2.152364   -0.000032
     13          1           0       -3.125812   -0.791821   -0.000017
 ---------------------------------------------------------------------

 SCF Done:  E(RM062X) =  -406.552582626     A.U. after    1 cycles

 The electronic state is 1-A.
 Alpha  occ. eigenvalues --  -25.27491 -19.68599 -10.63860 -10.62690 -10.57302
 Alpha  occ. eigenvalues --  -10.57181 -10.57021 -10.56642  -1.36788  -1.19645
 Alpha  occ. eigenvalues --   -0.97545  -0.86732  -0.84832  -0.73463  -0.70947
 Alpha  occ. eigenvalues --   -0.64053  -0.62953  -0.58670  -0.56262  -0.53434
 Alpha  occ. eigenvalues --   -0.51811  -0.51048  -0.49988  -0.48157  -0.45578
 Alpha  occ. eigenvalues --   -0.41674  -0.41341  -0.32565  -0.28326
 Alpha virt. eigenvalues --    0.00352   0.00777   0.02730   0.03249   0.03349
 Alpha virt. eigenvalues --    0.04440   0.05471   0.07566   0.07736   0.09235
 Alpha virt. eigenvalues --    0.09355   0.09791   0.10494   0.13307   0.13353

 Mulliken charges:
               1
     1  C   -0.002714
     2  C   -0.256327
     3  C    0.126319
     4  C   -0.213586
     5  C   -0.078159
     6  C    0.085966
     7  O   -0.689233
     8  F   -0.345261
     9  H    0.198686
    10  H    0.230263
    11  H    0.231118
    12  H    0.228335
    13  H    0.484592
 Sum of Mulliken charges =   0.00000

 Dipole moment (field-independent basis, Debye):
    X=             -1.5924    Y=             -1.4214    Z=             -0.0001  Tot=              2.1345
 Quadrupole moment (field-independent basis, Debye-Ang):
   XX=            -48.5155   YY=            -38.0772   ZZ=            -49.0214
   XY=              5.4244   XZ=              0.0002   YZ=              0.0000

  Exact polarizability:  87.128   0.981  78.711   0.000   0.000  39.980
 Approx polarizability: 110.049   0.497 102.716   0.000   0.000  49.903

                      1                      2                      3
                      A                      A                      A
 Frequencies --    158.1676               351.6809               364.6717
 Red. masses --      8.5258                 7.1028                 1.1071
 Frc consts  --      0.1257                 0.5176                 0.0867
 IR Inten    --      0.3065                 6.2067               123.5996

                      4                      5                      6
                      A                      A                      A
 Frequencies --    376.9684               433.9367               450.3210
 Red. masses --      7.1032                 2.9881                 4.1977
 Frc consts  --      0.5947                 0.3315                 0.5015
 IR Inten    --      0.1548                 2.7823                 6.0980

                      7                      8                      9
                      A                      A                      A
 Frequencies --    463.7315               521.3577               650.8947
 Red. masses --      9.9124                 2.2757                 6.9749
 Frc consts  --      1.2559                 0.3645                 1.7411
 IR Inten    --      1.5720                24.0741                 0.6553

                     10                     11                     12
                      A                      A                      A
 Frequencies --    697.7527               765.0094               823.7531
 Red. masses --      4.0204                 6.0190                 1.2877
 Frc consts  --      1.1533                 2.0754                 0.5148
 IR Inten    --      0.2114                54.0351                11.1466

                     13                     14                     15
                      A                      A                      A
 Frequencies --    860.4056               886.7979               946.3595
 Red. masses --      1.6565                 6.4142                 1.3242
 Frc consts  --      0.7225                 2.9720                 0.6987
 IR Inten    --     72.0195                 0.3299                 1.2760

                     16                     17                     18
                      A                      A                      A
 Frequencies --    978.4724              1035.3042              1120.0713
 Red. masses --      1.3229                 2.3627                 1.2255
 Frc consts  --      0.7462                 1.4921                 0.9058
 IR Inten    --      0.0291                 3.0689                15.5193

                     19                     20                     21
                      A                      A                      A
 Frequencies --   1177.8424              1207.5493              1272.2714
 Red. masses --      1.1124                 1.3453                 2.6375
 Frc consts  --      0.9093                 1.1558                 2.5154
 IR Inten    --      0.8930               133.9751               166.4110

                     22                     23                     24
                      A                      A                      A
 Frequencies --   1324.4715              1335.9091              1376.8714
 Red. masses --      1.6343                 5.3821                 3.6753
 Frc consts  --      1.6891                 5.6592                 4.1052
 IR Inten    --     18.6384                 0.8684                31.1569

                     25                     26                     27
                      A                      A                      A
 Frequencies --   1500.2423              1579.9698              1706.2014
 Red. masses --      3.2460                 3.1906                 7.2173
 Frc consts  --      4.3045                 4.6927                12.3790
 IR Inten    --     28.2634               273.6347                 3.4485

                     28                     29                     30
                      A                      A                      A
 Frequencies --   1716.0820              3198.6099              3233.5551
 Red. masses --      6.9045                 1.0909                 1.0899
 Frc consts  --     11.9800                 6.5757                 6.7142
 IR Inten    --      0.1722                 9.7697                 2.1208

                     31                     32                     33
                      A                      A                      A
 Frequencies --   3241.4450              3248.8881              3820.3239
 Red. masses --      1.0944                 1.0961                 1.0664
 Frc consts  --      6.7752                 6.8165                 9.1703
 IR Inten    --      0.4436                 0.4007                69.6790

 - Thermochemistry -
 -------------------
 Temperature   298.150 Kelvin.  Pressure   1.00000 Atm.
 Atom     1 has atomic number  6 and mass  12.00000

 Molecular mass:   112.03244 amu.
 Principal axes and moments of inertia in atomic units:
                           1         2         3
     Eigenvalues --   319.940821239.062671559.00349
           X            0.99995   0.01012   0.00000
           Y           -0.01012   0.99995   0.00000
           Z            0.00000   0.00000   1.00000
 This molecule is an asymmetric top.
 Rotational symmetry number  1.
 Rotational temperatures (Kelvin)      0.27072     0.06990     0.05556
 Rotational constants (GHZ):           5.64086     1.45654     1.15762
 Zero-point vibrational energy     256155.7 (Joules/Mol)
                                   61.22268 (Kcal/Mol)
 Warning -- explicit consideration of   8 degrees of freedom as
           vibrations may cause significant error
 Vibrational temperatures:    227.57   505.99   524.68   542.37   624.34
          (Kelvin)            647.91   667.21   750.12   936.49  1003.91
                             1100.68  1185.20  1237.93  1275.90  1361.60
                             1407.80  1489.57  1611.53  1694.65  1737.39
                             1830.51  1905.62  1922.07  1981.01  2158.51
                             2273.22  2454.84  2469.06  4602.08  4652.36
                             4663.71  4674.42  5496.59

 Zero-point correction=                           0.097565 (Hartree/Particle)
 Thermal correction to Energy=                    0.103822
 Thermal correction to Enthalpy=                  0.104766
 Thermal correction to Gibbs Free Energy=         0.067304
 Sum of electronic and zero-point Energies=           -406.455018
 Sum of electronic and thermal Energies=              -406.448761
 Sum of electronic and thermal Enthalpies=            -406.447816
 Sum of electronic and thermal Free Energies=         -406.485278

                     E (Thermal)             CV                S
                      KCal/Mol        Cal/Mol-Kelvin    Cal/Mol-Kelvin
 Total                   65.149             24.548             78.845
 Electronic               0.000              0.000              0.000
 Translational            0.889              2.981             40.057
 Rotational               0.889              2.981             27.915
 Vibrational             63.372             18.587             10.873
 Vibration     1          0.621              1.893              2.572
 Vibration     2          0.728              1.572              1.159
 Vibration     3          0.738              1.545              1.102
 Vibration     4          0.748              1.519              1.051
 Vibration     5          0.795              1.396              0.846
 Vibration     6          0.809              1.360              0.795
 Vibration     7          0.821              1.331              0.755
 Vibration     8          0.876              1.203              0.607

 Optimization completed.
    -- Stationary point found.
 Normal termination of Gaussian 09 at Fri Mar 21 11:15:35 2025.
