 Gaussian 09, Revision D.01,
 Gaussian 09:  ES64L-G09RevD.01 24-Apr-2013

 ---------------------------------
 #m062X/6-31+G(d) OPT Freq=noraman
 ---------------------------------

 ---------------------
 methylsulfinylmethane
 ---------------------
 Symbolic Z-matrix:
 Charge =  0 Multiplicity = 1

 SCF Done:  E(RM062X) =  -553.073840257     A.U. after   13 cycles
 SCF Done:  E(RM062X) =  -553.075820600     A.U. after   12 cycles
 SCF Done:  E(RM062X) =  -553.076089529     A.U. after   11 cycles
 SCF Done:  E(RM062X) =  -553.076119493     A.U. after   10 cycles
 SCF Done:  E(RM062X) =  -553.076125287     A.U. after   10 cycles
 SCF Done:  E(RM062X) =  -553.076125197     A.U. after    8 cycles
 SCF Done:  E(RM062X) =  -553.076125755     A.U. after    8 cycles
 Optimization completed.
    -- Stationary point found.
 Normal termination of Gaussian 09 at Thu Mar 20 15:44:29 2025.

 ---------------------------------------------------------------------
 #N Geom=AllCheck Guess=TCheck SCRF=Check GenChk RM062X/6-31+G(d) Freq
 ---------------------------------------------------------------------

 Structure from the checkpoint file:  "/srv/scratch/z5358697/gauss/Gau-3964230.chk"
 ---------------------
 methylsulfinylmethane
 ---------------------
 Charge =  0 Multiplicity = 1

                         Standard orientation:
 ---------------------------------------------------------------------
 Center     Atomic      Atomic             Coordinates (Angstroms)
 Number     Number       Type             X           Y           Z
 ---------------------------------------------------------------------
      1          6           0       -1.351198   -0.802339    0.185746
      2         16           0        0.000032    0.229859   -0.449404
      3          8           0        0.000070    1.484795    0.389063
      4          6           0        1.351081   -0.802484    0.185754
      5          1           0       -1.334034   -1.783503   -0.296632
      6          1           0       -2.284745   -0.287752   -0.049146
      7          1           0       -1.243555   -0.892107    1.270195
      8          1           0        2.284691   -0.287821   -0.048818
      9          1           0        1.334037   -1.783554   -0.296794
     10          1           0        1.243242   -0.892421    1.270147
 ---------------------------------------------------------------------

 SCF Done:  E(RM062X) =  -553.076125755     A.U. after    1 cycles

 The electronic state is 1-A.
 Alpha  occ. eigenvalues --  -90.03780 -19.60296 -10.58175 -10.58174  -8.36990
 Alpha  occ. eigenvalues --   -6.28993  -6.28948  -6.28559  -1.12595  -0.89703
 Alpha  occ. eigenvalues --   -0.82120  -0.69401  -0.54764  -0.53528  -0.53309
 Alpha  occ. eigenvalues --   -0.49792  -0.47355  -0.46153  -0.42657  -0.33556
 Alpha  occ. eigenvalues --   -0.29576
 Alpha virt. eigenvalues --    0.01594   0.02289   0.03773   0.04742   0.06192
 Alpha virt. eigenvalues --    0.06752   0.07181   0.07727   0.08436   0.08789
 Alpha virt. eigenvalues --    0.11661   0.13220   0.13841   0.15217   0.17907

 Mulliken charges:
               1
     1  C   -0.801514
     2  S    0.814921
     3  O   -0.712673
     4  C   -0.801531
     5  H    0.234050
     6  H    0.262369
     7  H    0.253973
     8  H    0.262373
     9  H    0.234066
    10  H    0.253966
 Sum of Mulliken charges =   0.00000

 Dipole moment (field-independent basis, Debye):
    X=             -0.0001    Y=             -4.4255    Z=             -0.7698  Tot=              4.4919
 Quadrupole moment (field-independent basis, Debye-Ang):
   XX=            -28.7948   YY=            -37.4484   ZZ=            -33.5490
   XY=             -0.0005   XZ=              0.0000   YZ=             -1.9209

  Exact polarizability:  52.209   0.001  52.210   0.000   1.073  40.714
 Approx polarizability:  55.074   0.001  63.682   0.000   3.444  47.699

                      1                      2                      3
                      A                      A                      A
 Frequencies --    204.7196               255.5359               286.8771
 Red. masses --      1.0291                 1.0600                 2.5710
 Frc consts  --      0.0254                 0.0408                 0.1247
 IR Inten    --      0.0006                 0.4325                 0.5808

                      4                      5                      6
                      A                      A                      A
 Frequencies --    311.5830               367.2341               691.8683
 Red. masses --      4.0735                 3.1573                 4.4452
 Frc consts  --      0.2330                 0.2509                 1.2537
 IR Inten    --     10.3641                10.5319                 6.1968

                      7                      8                      9
                      A                      A                      A
 Frequencies --    721.4885               909.8422               951.7029
 Red. masses --      3.8194                 1.2086                 1.3851
 Frc consts  --      1.1714                 0.5895                 0.7391
 IR Inten    --     14.9892                 2.7474                 6.9476

                     10                     11                     12
                      A                      A                      A
 Frequencies --    979.0919              1040.7060              1099.6621
 Red. masses --      1.5548                 1.3829                 7.9392
 Frc consts  --      0.8782                 0.8824                 5.6565
 IR Inten    --     12.2098                18.0190               153.2291

                     13                     14                     15
                      A                      A                      A
 Frequencies --   1347.4109              1372.0667              1463.5995
 Red. masses --      1.2046                 1.2024                 1.0524
 Frc consts  --      1.2885                 1.3337                 1.3283
 IR Inten    --      2.2721                10.2418                12.2675

                     16                     17                     18
                      A                      A                      A
 Frequencies --   1477.4504              1481.8973              1499.4923
 Red. masses --      1.0455                 1.0528                 1.0500
 Frc consts  --      1.3446                 1.3622                 1.3910
 IR Inten    --      5.0684                 0.0135                28.2123

                     19                     20                     21
                      A                      A                      A
 Frequencies --   3084.4985              3085.2506              3189.2125
 Red. masses --      1.0299                 1.0298                 1.1070
 Frc consts  --      5.7731                 5.7753                 6.6340
 IR Inten    --      4.3358                 6.4100                 0.0910

                     22                     23                     24
                      A                      A                      A
 Frequencies --   3191.7503              3197.2921              3197.5011
 Red. masses --      1.1069                 1.1059                 1.1058
 Frc consts  --      6.6439                 6.6606                 6.6612
 IR Inten    --      5.1326                 1.3923                 0.2473

 - Thermochemistry -
 -------------------
 Temperature   298.150 Kelvin.  Pressure   1.00000 Atm.
 Atom     1 has atomic number  6 and mass  12.00000

 Molecular mass:    78.01394 amu.
 Principal axes and moments of inertia in atomic units:
                           1         2         3
     Eigenvalues --   261.56200 264.61777 432.89171
           X            1.00000  -0.00034   0.00000
           Y            0.00034   0.99961  -0.02777
           Z            0.00001   0.02777   0.99961
 This molecule is an asymmetric top.
 Rotational symmetry number  1.
 Rotational temperatures (Kelvin)      0.33114     0.32732     0.20008
 Rotational constants (GHZ):           6.89986     6.82018     4.16904
 Zero-point vibrational energy     211785.3 (Joules/Mol)
                                   50.61790 (Kcal/Mol)
 Warning -- explicit consideration of   5 degrees of freedom as
           vibrations may cause significant error
 Vibrational temperatures:    294.55   367.66   412.75   448.30   528.37
          (Kelvin)            995.44  1038.06  1309.06  1369.29  1408.69
                             1497.34  1582.17  1938.62  1974.10  2105.79
                             2125.72  2132.12  2157.43  4437.90  4438.98
                             4588.56  4592.21  4600.18  4600.49

 Zero-point correction=                           0.080665 (Hartree/Particle)
 Thermal correction to Energy=                    0.086167
 Thermal correction to Enthalpy=                  0.087111
 Thermal correction to Gibbs Free Energy=         0.052527
 Sum of electronic and zero-point Energies=           -552.995461
 Sum of electronic and thermal Energies=              -552.989959
 Sum of electronic and thermal Enthalpies=            -552.989015
 Sum of electronic and thermal Free Energies=         -553.023599

                     E (Thermal)             CV                S
                      KCal/Mol        Cal/Mol-Kelvin    Cal/Mol-Kelvin
 Total                   54.070             18.571             72.789
 Electronic               0.000              0.000              0.000
 Translational            0.889              2.981             38.978
 Rotational               0.889              2.981             24.908
 Vibrational             52.293             12.609              8.903
 Vibration     1          0.640              1.833              2.090
 Vibration     2          0.666              1.753              1.692
 Vibration     3          0.684              1.698              1.492
 Vibration     4          0.700              1.652              1.354
 Vibration     5          0.740              1.540              1.091

 Optimization completed.
    -- Stationary point found.
 Normal termination of Gaussian 09 at Thu Mar 20 15:45:31 2025.
