 Gaussian 09, Revision D.01,
 Gaussian 09:  ES64L-G09RevD.01 24-Apr-2013

 ---------------------------------
 #m062X/6-31+G(d) OPT Freq=noraman
 ---------------------------------

 ---------------------------------------
 (2R)-2-bromo-1,1,1,2-tetrafluoro-ethane
 ---------------------------------------
 Symbolic Z-matrix:
 Charge =  0 Multiplicity = 1

 SCF Done:  E(RM062X) =  -3047.82830727     A.U. after   12 cycles
 SCF Done:  E(RM062X) =  -3047.82998984     A.U. after   11 cycles
 SCF Done:  E(RM062X) =  -3047.83015175     A.U. after   10 cycles
 SCF Done:  E(RM062X) =  -3047.83016745     A.U. after    9 cycles
 SCF Done:  E(RM062X) =  -3047.83016879     A.U. after    8 cycles
 Optimization completed.
    -- Stationary point found.
 Normal termination of Gaussian 09 at Fri Mar 14 15:57:04 2025.

 ---------------------------------------------------------------------
 #N Geom=AllCheck Guess=TCheck SCRF=Check GenChk RM062X/6-31+G(d) Freq
 ---------------------------------------------------------------------

 Structure from the checkpoint file:  "/srv/scratch/z5358697/gauss/Gau-1876199.chk"
 ---------------------------------------
 (2R)-2-bromo-1,1,1,2-tetrafluoro-ethane
 ---------------------------------------
 Charge =  0 Multiplicity = 1

                         Standard orientation:
 ---------------------------------------------------------------------
 Center     Atomic      Atomic             Coordinates (Angstroms)
 Number     Number       Type             X           Y           Z
 ---------------------------------------------------------------------
      1          6           0        0.102374    0.611330   -0.492847
      2          1           0        0.132273    0.699169   -1.579436
      3          6           0        1.278715   -0.232319   -0.003104
      4          9           0        2.422131    0.364091   -0.360581
      5          9           0        1.247790   -1.443706   -0.563982
      6          9           0        1.273506   -0.366983    1.320391
      7          9           0        0.217253    1.839258    0.071702
      8         35           0       -1.567570   -0.185919    0.009925
 ---------------------------------------------------------------------

 SCF Done:  E(RM062X) =  -3047.83016879     A.U. after    1 cycles

 The electronic state is 1-A.
 Alpha  occ. eigenvalues -- -485.50784 -62.78984 -57.32254 -57.31959 -57.31947
 Alpha  occ. eigenvalues --  -25.32974 -25.32795 -25.32689 -25.31595 -10.84148
 Alpha  occ. eigenvalues --  -10.73387  -8.96326  -6.91823  -6.90726  -6.90690
 Alpha  occ. eigenvalues --   -2.94674  -2.94301  -2.94269  -2.93296  -2.93295
 Alpha  occ. eigenvalues --   -1.49873  -1.41432  -1.40397  -1.40254  -0.96028
 Alpha  occ. eigenvalues --   -0.86762  -0.79076  -0.72621  -0.72112  -0.70586
 Alpha  occ. eigenvalues --   -0.64996  -0.61239  -0.59564  -0.58875  -0.57378
 Alpha  occ. eigenvalues --   -0.55553  -0.55524  -0.53684  -0.48528  -0.46150
 Alpha  occ. eigenvalues --   -0.38236  -0.37542
 Alpha virt. eigenvalues --   -0.00839   0.00847   0.03783   0.04016   0.04937
 Alpha virt. eigenvalues --    0.06008   0.06542   0.06787   0.07873   0.08674
 Alpha virt. eigenvalues --    0.10877   0.12568   0.13453   0.15000   0.20597

 Mulliken charges:
               1
     1  C   -0.091181
     2  H    0.267766
     3  C    0.887171
     4  F   -0.295439
     5  F   -0.276998
     6  F   -0.279930
     7  F   -0.226143
     8  Br   0.014754
 Sum of Mulliken charges =   0.00000

 Dipole moment (field-independent basis, Debye):
    X=             -0.6102    Y=              0.0160    Z=             -1.4548  Tot=              1.5776
 Quadrupole moment (field-independent basis, Debye-Ang):
   XX=            -51.2105   YY=            -52.7126   ZZ=            -48.6852
   XY=              0.6237   XZ=             -0.6806   YZ=             -1.6136

  Exact polarizability:  53.026   4.822  41.832  -2.307  -0.465  39.403
 Approx polarizability:  60.521   7.848  52.242  -3.864  -0.286  49.473

                      1                      2                      3
                      A                      A                      A
 Frequencies --     70.8884               153.3941               236.9432
 Red. masses --     16.7067                20.7494                15.6042
 Frc consts  --      0.0495                 0.2877                 0.5162
 IR Inten    --      0.2104                 1.1661                 2.0755

                      4                      5                      6
                      A                      A                      A
 Frequencies --    305.0851               318.0407               432.7304
 Red. masses --     18.6990                23.6045                14.9346
 Frc consts  --      1.0254                 1.4067                 1.6477
 IR Inten    --      1.9557                 0.2926                 1.2583

                      7                      8                      9
                      A                      A                      A
 Frequencies --    523.8477               575.5391               698.1105
 Red. masses --     13.4450                15.0379                11.4083
 Frc consts  --      2.1738                 2.9349                 3.2758
 IR Inten    --      8.9439                 7.6085                41.0260

                     10                     11                     12
                      A                      A                      A
 Frequencies --    772.0858               895.5509              1157.5902
 Red. masses --      5.4212                 6.3196                 5.3876
 Frc consts  --      1.9040                 2.9862                 4.2535
 IR Inten    --     58.3736                39.7879               123.1995

                     13                     14                     15
                      A                      A                      A
 Frequencies --   1205.6058              1276.2844              1315.4734
 Red. masses --      2.5303                10.0150                 1.4204
 Frc consts  --      2.1668                 9.6116                 1.4482
 IR Inten    --    216.2162               271.3302                13.9796

                     16                     17                     18
                      A                      A                      A
 Frequencies --   1342.2155              1426.6101              3201.9000
 Red. masses --      4.4643                 2.3597                 1.0877
 Frc consts  --      4.7385                 2.8296                 6.5704
 IR Inten    --    178.6991                68.0888                 3.2616

 - Thermochemistry -
 -------------------
 Temperature   298.150 Kelvin.  Pressure   1.00000 Atm.
 Atom     1 has atomic number  6 and mass  12.00000

 Molecular mass:   179.91977 amu.
 Principal axes and moments of inertia in atomic units:
                           1         2         3
     Eigenvalues --   587.129861546.675051797.29955
           X            0.99999  -0.00532  -0.00078
           Y            0.00530   0.99978  -0.02039
           Z            0.00089   0.02039   0.99979
 This molecule is an asymmetric top.
 Rotational symmetry number  1.
 Warning -- assumption of classical behavior for rotation
           may cause significant error
 Rotational temperatures (Kelvin)      0.14752     0.05600     0.04819
 Rotational constants (GHZ):           3.07384     1.16685     1.00414
 Zero-point vibrational energy      95150.3 (Joules/Mol)
                                   22.74148 (Kcal/Mol)
 Warning -- explicit consideration of   8 degrees of freedom as
           vibrations may cause significant error
 Vibrational temperatures:    101.99   220.70   340.91   438.95   457.59
          (Kelvin)            622.60   753.70   828.07  1004.42  1110.86
                             1288.50  1665.51  1734.60  1836.29  1892.67
                             1931.15  2052.57  4606.81

 Zero-point correction=                           0.036241 (Hartree/Particle)
 Thermal correction to Energy=                    0.042810
 Thermal correction to Enthalpy=                  0.043754
 Thermal correction to Gibbs Free Energy=         0.003628
 Sum of electronic and zero-point Energies=          -3047.793928
 Sum of electronic and thermal Energies=             -3047.787359
 Sum of electronic and thermal Enthalpies=           -3047.786415
 Sum of electronic and thermal Free Energies=        -3047.826541

                     E (Thermal)             CV                S
                      KCal/Mol        Cal/Mol-Kelvin    Cal/Mol-Kelvin
 Total                   26.864             21.594             84.453
 Electronic               0.000              0.000              0.000
 Translational            0.889              2.981             41.469
 Rotational               0.889              2.981             28.880
 Vibrational             25.086             15.633             14.104
 Vibration     1          0.598              1.968              4.129
 Vibration     2          0.619              1.899              2.630
 Vibration     3          0.656              1.784              1.826
 Vibration     4          0.696              1.664              1.389
 Vibration     5          0.704              1.639              1.320
 Vibration     6          0.794              1.399              0.850
 Vibration     7          0.879              1.197              0.601
 Vibration     8          0.932              1.084              0.494

 Optimization completed.
    -- Stationary point found.
 Normal termination of Gaussian 09 at Fri Mar 14 15:59:05 2025.
