 Gaussian 09, Revision D.01,
 Gaussian 09:  ES64L-G09RevD.01 24-Apr-2013

 -------------------------------
 #m062X/def2SVP OPT Freq=noraman
 -------------------------------

 ------------
 2-iodophenol
 ------------
 Symbolic Z-matrix:
 Charge =  0 Multiplicity = 1

 SCF Done:  E(RM062X) =  -604.136595363     A.U. after   16 cycles
 SCF Done:  E(RM062X) =  -604.137836228     A.U. after   14 cycles
 SCF Done:  E(RM062X) =  -604.138021314     A.U. after   13 cycles
 SCF Done:  E(RM062X) =  -604.138027014     A.U. after   10 cycles
 SCF Done:  E(RM062X) =  -604.138027799     A.U. after    9 cycles
 Optimization completed.
    -- Stationary point found.

 1\1\GINC-KATANA2\FOpt\RM062X\def2SVP\C6H5I1O1\Z5358697\21-Mar-2025\0\\
 #m062X/def2SVP OPT Freq=noraman\\2-iodophenol\\0,1\C,1.885794823,-1.03
 686504,-0.1076930873\C,2.9311888987,-1.6359969913,0.5978903774\C,2.892
 1523376,-1.6591295248,1.9883087074\C,1.8154149544,-1.087100261,2.66446
 82175\C,0.7588398727,-0.4820941358,1.9678816147\C,0.8146647783,-0.4678
 846021,0.5671430541\O,-0.307577584,0.0872160015,2.552040031\I,1.774274
 5208,-1.13215606,4.7741967957\H,1.9048352624,-1.0123438714,-1.19800779
 41\H,3.7740956519,-2.0838981728,0.0717328564\H,3.6994356849,-2.1225387

 Normal termination of Gaussian 09 at Fri Mar 21 11:19:08 2025.

 -------------------------------------------------------------------
 #N Geom=AllCheck Guess=TCheck SCRF=Check GenChk RM062X/def2SVP Freq
 -------------------------------------------------------------------

 Structure from the checkpoint file:  "/srv/scratch/z5358697/gauss/Gau-2575138.chk"
 ------------
 2-iodophenol
 ------------
 Charge =  0 Multiplicity = 1

                         Standard orientation:
 ---------------------------------------------------------------------
 Center     Atomic      Atomic             Coordinates (Angstroms)
 Number     Number       Type             X           Y           Z
 ---------------------------------------------------------------------
      1          6           0        3.282218   -0.325755    0.000005
      2          6           0        2.541402   -1.509329    0.000000
      3          6           0        1.151703   -1.445620   -0.000004
      4          6           0        0.511242   -0.207241   -0.000009
      5          6           0        1.243431    0.989218   -0.000006
      6          6           0        2.642894    0.906205    0.000001
      7          8           0        0.694665    2.214558    0.000003
      8         53           0       -1.597999   -0.131214    0.000001
      9          1           0        4.372356   -0.362505    0.000010
     10          1           0        3.039613   -2.478728    0.000008
     11          1           0        0.556445   -2.359290   -0.000007
     12          1           0        3.201451    1.842694   -0.000002
     13          1           0       -0.270603    2.150846   -0.000022
 ---------------------------------------------------------------------

 SCF Done:  E(RM062X) =  -604.138027799     A.U. after    1 cycles

 The electronic state is 1-A.
 Alpha  occ. eigenvalues --  -19.66824 -10.63607 -10.60928 -10.57700 -10.56965
 Alpha  occ. eigenvalues --  -10.56401 -10.56337  -7.11491  -5.11083  -5.09791
 Alpha  occ. eigenvalues --   -5.09681  -2.07930  -2.07484  -2.07374  -2.06323
 Alpha  occ. eigenvalues --   -2.06319  -1.18398  -0.96365  -0.86521  -0.84088
 Alpha  occ. eigenvalues --   -0.78639  -0.70285  -0.69607  -0.62564  -0.57982
 Alpha  occ. eigenvalues --   -0.54604  -0.51164  -0.50984  -0.48072  -0.46833
 Alpha  occ. eigenvalues --   -0.43308  -0.42542  -0.39932  -0.36055  -0.33519
 Alpha  occ. eigenvalues --   -0.30494  -0.28335
 Alpha virt. eigenvalues --   -0.00101   0.01093   0.02971   0.10643   0.11267
 Alpha virt. eigenvalues --    0.14377   0.17086   0.18573   0.19345   0.26251
 Alpha virt. eigenvalues --    0.27292   0.30810   0.32171   0.32306   0.34313

 Mulliken charges:
               1
     1  C   -0.005139
     2  C   -0.017535
     3  C   -0.006804
     4  C   -0.222698
     5  C    0.151575
     6  C   -0.046098
     7  O   -0.220625
     8  I    0.055111
     9  H    0.029770
    10  H    0.026560
    11  H    0.030631
    12  H    0.027394
    13  H    0.197857
 Sum of Mulliken charges =   0.00000

 Dipole moment (field-independent basis, Debye):
    X=              0.2032    Y=             -0.7126    Z=              0.0000  Tot=              0.7410
 Quadrupole moment (field-independent basis, Debye-Ang):
   XX=            -59.4417   YY=            -65.1730   ZZ=            -71.1907
   XY=             -3.0204   XZ=              0.0000   YZ=             -0.0001

  Exact polarizability: 130.663  -2.970  91.369   0.000   0.000  42.726
 Approx polarizability: 157.734  -3.064 130.138   0.000   0.000  60.438

                      1                      2                      3
                      A                      A                      A
 Frequencies --    133.4826               203.1434               258.5449
 Red. masses --      4.3713                 7.7617                 9.3787
 Frc consts  --      0.0459                 0.1887                 0.3694
 IR Inten    --      0.0001                 0.1212                 0.1192

                      4                      5                      6
                      A                      A                      A
 Frequencies --    258.7400               407.9508               454.3118
 Red. masses --      5.1128                 1.0859                 3.3693
 Frc consts  --      0.2017                 0.1065                 0.4097
 IR Inten    --      1.5253                94.2375                 2.7020

                      7                      8                      9
                      A                      A                      A
 Frequencies --    488.6706               554.5174               556.5021
 Red. masses --      4.4451                 7.6279                 3.5168
 Frc consts  --      0.6254                 1.3819                 0.6417
 IR Inten    --     12.7843                 2.6649                 0.0462

                     10                     11                     12
                      A                      A                      A
 Frequencies --    657.9261               735.4549               776.7026
 Red. masses --      6.6785                 3.2334                 1.3342
 Frc consts  --      1.7033                 1.0304                 0.4742
 IR Inten    --     14.5204                 0.4716                56.7764

                     13                     14                     15
                      A                      A                      A
 Frequencies --    853.4409               889.7992               985.2313
 Red. masses --      5.8010                 1.4228                 1.3603
 Frc consts  --      2.4894                 0.6637                 0.7780
 IR Inten    --     12.8494                 3.2988                 2.0453

                     16                     17                     18
                      A                      A                      A
 Frequencies --   1022.8514              1032.4293              1072.8788
 Red. masses --      1.3188                 6.4845                 1.7276
 Frc consts  --      0.8129                 4.0724                 1.1717
 IR Inten    --      0.0581                36.3580                 3.7106

                     19                     20                     21
                      A                      A                      A
 Frequencies --   1136.9597              1158.1099              1223.0828
 Red. masses --      1.4196                 1.0911                 1.3453
 Frc consts  --      1.0812                 0.8622                 1.1857
 IR Inten    --      1.1478                 4.4266               115.6549

                     22                     23                     24
                      A                      A                      A
 Frequencies --   1298.9400              1352.8373              1384.7973
 Red. masses --      2.0394                 1.9983                 3.3299
 Frc consts  --      2.0273                 2.1547                 3.7623
 IR Inten    --     62.0378                 3.3516                54.2039

                     25                     26                     27
                      A                      A                      A
 Frequencies --   1504.2339              1544.4159              1673.1442
 Red. masses --      2.7173                 3.7902                 6.5321
 Frc consts  --      3.6226                 5.3264                10.7739
 IR Inten    --      4.9272               151.8390                17.6193

                     28                     29                     30
                      A                      A                      A
 Frequencies --   1701.9889              3210.8540              3222.6131
 Red. masses --      7.3303                 1.0871                 1.0925
 Frc consts  --     12.5109                 6.6031                 6.6846
 IR Inten    --     42.0069                 1.1741                 2.5957

                     31                     32                     33
                      A                      A                      A
 Frequencies --   3231.5341              3236.2449              3821.2542
 Red. masses --      1.0962                 1.1000                 1.0654
 Frc consts  --      6.7449                 6.7877                 9.1662
 IR Inten    --      0.4735                 2.6066               115.4290

 - Thermochemistry -
 -------------------
 Temperature   298.150 Kelvin.  Pressure   1.00000 Atm.
 Atom     1 has atomic number  6 and mass  12.00000

 Molecular mass:   219.93444 amu.
 Principal axes and moments of inertia in atomic units:
                           1         2         3
     Eigenvalues --   629.486872465.977813095.46468
           X            0.99984  -0.01777   0.00000
           Y            0.01777   0.99984   0.00000
           Z            0.00000   0.00000   1.00000
 This molecule is an asymmetric top.
 Rotational symmetry number  1.
 Warning -- assumption of classical behavior for rotation
           may cause significant error
 Rotational temperatures (Kelvin)      0.13759     0.03512     0.02798
 Rotational constants (GHZ):           2.86700     0.73186     0.58303
 Zero-point vibrational energy     251476.5 (Joules/Mol)
                                   60.10433 (Kcal/Mol)
 Warning -- explicit consideration of   9 degrees of freedom as
           vibrations may cause significant error
 Vibrational temperatures:    192.05   292.28   371.99   372.27   586.95
          (Kelvin)            653.65   703.09   797.83   800.68   946.61
                             1058.15  1117.50  1227.91  1280.22  1417.53
                             1471.65  1485.43  1543.63  1635.83  1666.26
                             1759.74  1868.88  1946.43  1992.41  2164.25
                             2222.07  2407.28  2448.78  4619.70  4636.62
                             4649.45  4656.23  5497.93

 Zero-point correction=                           0.095782 (Hartree/Particle)
 Thermal correction to Energy=                    0.102626
 Thermal correction to Enthalpy=                  0.103570
 Thermal correction to Gibbs Free Energy=         0.062910
 Sum of electronic and zero-point Energies=           -604.042245
 Sum of electronic and thermal Energies=              -604.035402
 Sum of electronic and thermal Enthalpies=            -604.034458
 Sum of electronic and thermal Free Energies=         -604.075118

                     E (Thermal)             CV                S
                      KCal/Mol        Cal/Mol-Kelvin    Cal/Mol-Kelvin
 Total                   64.399             25.660             85.576
 Electronic               0.000              0.000              0.000
 Translational            0.889              2.981             42.067
 Rotational               0.889              2.981             29.953
 Vibrational             62.621             19.699             13.555
 Vibration     1          0.613              1.920              2.895
 Vibration     2          0.639              1.835              2.104
 Vibration     3          0.667              1.748              1.672
 Vibration     4          0.668              1.748              1.670
 Vibration     5          0.773              1.453              0.934
 Vibration     6          0.813              1.351              0.783
 Vibration     7          0.845              1.275              0.687
 Vibration     8          0.910              1.130              0.535
 Vibration     9          0.912              1.125              0.531

 Optimization completed.
    -- Stationary point found.

 1\1\GINC-KATANA2\Freq\RM062X\def2SVP\C6H5I1O1\Z5358697\21-Mar-2025\0\\
 #N Geom=AllCheck Guess=TCheck SCRF=Check GenChk RM062X/def2SVP Freq\\2
 -iodophenol\\0,1\C,1.885794823,-1.03686504,-0.1076930873\C,2.931188898
 7,-1.6359969913,0.5978903774\C,2.8921523376,-1.6591295248,1.9883087074
 \C,1.8154149544,-1.087100261,2.6644682175\C,0.7588398727,-0.4820941358
 ,1.9678816147\C,0.8146647783,-0.4678846021,0.5671430541\O,-0.307577584
 ,0.0872160015,2.552040031\I,1.7742745208,-1.13215606,4.7741967957\H,1.
 9048352624,-1.0123438714,-1.1980077941\H,3.7740956519,-2.0838981728,0.

 Normal termination of Gaussian 09 at Fri Mar 21 11:22:47 2025.
