 Gaussian 09, Revision D.01,
 Gaussian 09:  ES64L-G09RevD.01 24-Apr-2013

 ---------------------------------
 #m062X/6-31+G(d) OPT Freq=noraman
 ---------------------------------

 ----------------------
 trifluoromethylbenzene
 ----------------------
 Symbolic Z-matrix:
 Charge =  0 Multiplicity = 1

 SCF Done:  E(RM062X) =  -569.099713848     A.U. after   14 cycles
 SCF Done:  E(RM062X) =  -569.101311994     A.U. after   12 cycles
 SCF Done:  E(RM062X) =  -569.101429332     A.U. after   11 cycles
 SCF Done:  E(RM062X) =  -569.101446380     A.U. after   11 cycles
 Optimization completed.
    -- Stationary point found.

 1\1\GINC-KATANA3\FOpt\RM062X\6-31+G(d)\C7H5F3\Z5358697\17-Mar-2025\0\\
 #m062X/6-31+G(d) OPT Freq=noraman\\trifluoromethylbenzene\\0,1\C,1.883
 938603,-1.0352254453,-0.1037974187\C,2.9235622361,-1.6317309741,0.6054
 889393\C,2.8935524469,-1.6610358938,1.9991606701\C,1.816702399,-1.0891
 932938,2.6701725612\C,0.771582823,-0.4898760924,1.9666669097\C,0.80753
 66563,-0.4640562318,0.5766007908\C,1.7488797872,-1.1008206798,4.171457
 241\F,2.8101714574,-1.7043015991,4.7296675376\F,1.6911050902,0.1465810
 832,4.6767899986\F,0.6500601467,-1.741448449,4.6152839203\H,1.91061027

 Normal termination of Gaussian 09 at Mon Mar 17 19:32:07 2025.

 ---------------------------------------------------------------------
 #N Geom=AllCheck Guess=TCheck SCRF=Check GenChk RM062X/6-31+G(d) Freq
 ---------------------------------------------------------------------

 Structure from the checkpoint file:  "/srv/scratch/z5358697/gauss/Gau-2760065.chk"
 ----------------------
 trifluoromethylbenzene
 ----------------------
 Charge =  0 Multiplicity = 1

                         Standard orientation:
 ---------------------------------------------------------------------
 Center     Atomic      Atomic             Coordinates (Angstroms)
 Number     Number       Type             X           Y           Z
 ---------------------------------------------------------------------
      1          6           0        2.828328   -0.016212   -0.000053
      2          6           0        2.150514    1.200460   -0.000051
      3          6           0        0.756427    1.225004    0.000125
      4          6           0        0.053309    0.023966    0.000103
      5          6           0        0.725180   -1.198723    0.000127
      6          6           0        2.115840   -1.216286    0.000029
      7          6           0       -1.449484    0.009707   -0.000029
      8          9           0       -1.975624    1.244739   -0.000049
      9          9           0       -1.941096   -0.630515   -1.078521
     10          9           0       -1.941433   -0.630460    1.078378
     11          1           0        3.914220   -0.031490   -0.000057
     12          1           0        2.705216    2.133693   -0.000083
     13          1           0        0.219206    2.167600    0.000163
     14          1           0        0.159747   -2.126515    0.000170
     15          1           0        2.644306   -2.164660    0.000028
 ---------------------------------------------------------------------

 SCF Done:  E(RM062X) =  -569.101446380     A.U. after    1 cycles

 The electronic state is 1-A.
 Alpha  occ. eigenvalues --  -25.30384 -25.29879 -25.29877 -10.81240 -10.59051
 Alpha  occ. eigenvalues --  -10.58148 -10.58125 -10.57812 -10.57690 -10.57647
 Alpha  occ. eigenvalues --   -1.46709  -1.37592  -1.37084  -0.99179  -0.89841
 Alpha  occ. eigenvalues --   -0.86874  -0.81007  -0.72832  -0.72235  -0.68940
 Alpha  occ. eigenvalues --   -0.68263  -0.66141  -0.59611  -0.57289  -0.57120
 Alpha  occ. eigenvalues --   -0.54423  -0.54356  -0.53007  -0.52479  -0.50995
 Alpha  occ. eigenvalues --   -0.50733  -0.48712  -0.45998  -0.42841  -0.42766
 Alpha  occ. eigenvalues --   -0.33290  -0.32926
 Alpha virt. eigenvalues --   -0.00899   0.00106   0.01211   0.02922   0.03163
 Alpha virt. eigenvalues --    0.04860   0.04918   0.05261   0.07365   0.07716
 Alpha virt. eigenvalues --    0.08107   0.08516   0.09365   0.11534   0.12814

 Mulliken charges:
               1
     1  C   -0.078478
     2  C   -0.304108
     3  C   -0.290270
     4  C   -0.623214
     5  C    0.331648
     6  C   -0.253108
     7  C    0.986802
     8  F   -0.341116
     9  F   -0.275057
    10  F   -0.275079
    11  H    0.214685
    12  H    0.216989
    13  H    0.238261
    14  H    0.234304
    15  H    0.217739
 Sum of Mulliken charges =   0.00000

 Dipole moment (field-independent basis, Debye):
    X=              3.0452    Y=              0.0637    Z=              0.0000  Tot=              3.0458
 Quadrupole moment (field-independent basis, Debye-Ang):
   XX=            -53.9423   YY=            -50.6943   ZZ=            -60.5611
   XY=             -0.1099   XZ=              0.0002   YZ=             -0.0001

  Exact polarizability:  95.385   0.361  85.590  -0.003   0.000  49.335
 Approx polarizability: 113.951   0.467 113.765  -0.004  -0.001  62.157

                      1                      2                      3
                      A                      A                      A
 Frequencies --     26.4274               138.7534               199.1184
 Red. masses --      6.1037                 6.4439                 6.9035
 Frc consts  --      0.0025                 0.0731                 0.1613
 IR Inten    --      0.0186                 0.0074                 0.6555

                      4                      5                      6
                      A                      A                      A
 Frequencies --    326.7803               343.0543               402.4027
 Red. masses --      5.6161                 9.2147                 9.8591
 Frc consts  --      0.3533                 0.6389                 0.9406
 IR Inten    --      0.1588                 4.4896                 1.2360

                      7                      8                      9
                      A                      A                      A
 Frequencies --    410.9229               491.6248               583.3747
 Red. masses --      2.8676                 6.3606                13.2785
 Frc consts  --      0.2853                 0.9058                 2.6625
 IR Inten    --      0.0013                 0.3794                 0.2709

                     10                     11                     12
                      A                      A                      A
 Frequencies --    603.8177               627.0499               666.7805
 Red. masses --      5.0165                 6.4148                 8.3963
 Frc consts  --      1.0776                 1.4861                 2.1994
 IR Inten    --     11.0619                 0.0512                20.6912

                     13                     14                     15
                      A                      A                      A
 Frequencies --    712.5891               791.8387               793.0741
 Red. masses --      1.7268                 1.9918                10.0439
 Frc consts  --      0.5166                 0.7358                 3.7220
 IR Inten    --     51.6679                41.4661                 0.8877

                     16                     17                     18
                      A                      A                      A
 Frequencies --    873.6473               959.6212              1007.6446
 Red. masses --      1.2486                 1.4007                 1.3778
 Frc consts  --      0.5615                 0.7600                 0.8243
 IR Inten    --      0.1530                 5.1071                 0.0549

                     19                     20                     21
                      A                      A                      A
 Frequencies --   1020.5333              1029.8492              1064.7849
 Red. masses --      6.2819                 1.3102                 2.8411
 Frc consts  --      3.8547                 0.8187                 1.8978
 IR Inten    --      7.0541                 0.1324                19.3832

                     22                     23                     24
                      A                      A                      A
 Frequencies --   1113.1109              1119.9926              1189.5784
 Red. masses --      2.9270                 1.6085                 1.1154
 Frc consts  --      2.1367                 1.1887                 0.9300
 IR Inten    --     66.7821                22.5380                 1.9446

                     25                     26                     27
                      A                      A                      A
 Frequencies --   1214.8091              1216.9727              1248.0102
 Red. masses --      1.1192                12.8963                 7.4992
 Frc consts  --      0.9732                11.2532                 6.8818
 IR Inten    --      3.1004               281.1691               199.6892

                     28                     29                     30
                      A                      A                      A
 Frequencies --   1356.7580              1371.1558              1381.7118
 Red. masses --      1.5732                 3.5445                 5.2238
 Frc consts  --      1.7063                 3.9263                 5.8758
 IR Inten    --     11.1245                39.8752               296.5065

                     31                     32                     33
                      A                      A                      A
 Frequencies --   1509.6211              1560.9643              1689.3637
 Red. masses --      2.4445                 2.5947                 6.4921
 Frc consts  --      3.2823                 3.7250                10.9165
 IR Inten    --     21.4413                 2.3048                 0.5305

                     34                     35                     36
                      A                      A                      A
 Frequencies --   1705.5477              3209.1644              3219.4398
 Red. masses --      6.0590                 1.0866                 1.0900
 Frc consts  --     10.3844                 6.5934                 6.6563
 IR Inten    --      8.3537                 0.3263                 3.8010

                     37                     38                     39
                      A                      A                      A
 Frequencies --   3226.8348              3233.0053              3242.2056
 Red. masses --      1.0933                 1.0975                 1.0960
 Frc consts  --      6.7071                 6.7587                 6.7879
 IR Inten    --      7.5838                 5.1310                 2.2496

 - Thermochemistry -
 -------------------
 Temperature   298.150 Kelvin.  Pressure   1.00000 Atm.
 Atom     1 has atomic number  6 and mass  12.00000

 Molecular mass:   146.03433 amu.
 Principal axes and moments of inertia in atomic units:
                           1         2         3
     Eigenvalues --   634.378661905.093222223.84468
           X            1.00000   0.00020   0.00000
           Y           -0.00020   1.00000   0.00000
           Z            0.00000   0.00000   1.00000
 This molecule is an asymmetric top.
 Rotational symmetry number  1.
 Warning -- assumption of classical behavior for rotation
           may cause significant error
 Rotational temperatures (Kelvin)      0.13653     0.04546     0.03895
 Rotational constants (GHZ):           2.84490     0.94732     0.81154
 Zero-point vibrational energy     280416.2 (Joules/Mol)
                                   67.02109 (Kcal/Mol)
 Warning -- explicit consideration of  10 degrees of freedom as
           vibrations may cause significant error
 Vibrational temperatures:     38.02   199.63   286.49   470.16   493.58
          (Kelvin)            578.97   591.23   707.34   839.35   868.76
                              902.18   959.35  1025.26  1139.28  1141.06
                             1256.98  1380.68  1449.77  1468.32  1481.72
                             1531.99  1601.52  1611.42  1711.54  1747.84
                             1750.95  1795.61  1952.07  1972.78  1987.97
                             2172.01  2245.88  2430.61  2453.90  4617.27
                             4632.05  4642.69  4651.57  4664.80

 Zero-point correction=                           0.106805 (Hartree/Particle)
 Thermal correction to Energy=                    0.114591
 Thermal correction to Enthalpy=                  0.115535
 Thermal correction to Gibbs Free Energy=         0.072939
 Sum of electronic and zero-point Energies=           -568.994641
 Sum of electronic and thermal Energies=              -568.986855
 Sum of electronic and thermal Enthalpies=            -568.985911
 Sum of electronic and thermal Free Energies=         -569.028507

                     E (Thermal)             CV                S
                      KCal/Mol        Cal/Mol-Kelvin    Cal/Mol-Kelvin
 Total                   71.907             29.395             89.650
 Electronic               0.000              0.000              0.000
 Translational            0.889              2.981             40.847
 Rotational               0.889              2.981             29.376
 Vibrational             70.129             23.434             19.428
 Vibration     1          0.593              1.985              6.081
 Vibration     2          0.614              1.915              2.821
 Vibration     3          0.637              1.841              2.141
 Vibration     4          0.710              1.622              1.276
 Vibration     5          0.722              1.589              1.198
 Vibration     6          0.768              1.465              0.954
 Vibration     7          0.775              1.447              0.923
 Vibration     8          0.847              1.269              0.679
 Vibration     9          0.940              1.067              0.479
 Vibration    10          0.962              1.024              0.443

 Optimization completed.
    -- Stationary point found.

 1\1\GINC-KATANA3\Freq\RM062X\6-31+G(d)\C7H5F3\Z5358697\17-Mar-2025\0\\
 #N Geom=AllCheck Guess=TCheck SCRF=Check GenChk RM062X/6-31+G(d) Freq\
 \trifluoromethylbenzene\\0,1\C,1.883938603,-1.0352254453,-0.1037974187
 \C,2.9235622361,-1.6317309741,0.6054889393\C,2.8935524469,-1.661035893
 8,1.9991606701\C,1.816702399,-1.0891932938,2.6701725612\C,0.771582823,
 -0.4898760924,1.9666669097\C,0.8075366563,-0.4640562318,0.5766007908\C
 ,1.7488797872,-1.1008206798,4.171457241\F,2.8101714574,-1.7043015991,4
 .7296675376\F,1.6911050902,0.1465810832,4.6767899986\F,0.6500601467,-1

 Normal termination of Gaussian 09 at Mon Mar 17 19:40:40 2025.
