 Gaussian 09, Revision D.01,
 Gaussian 09:  ES64L-G09RevD.01 24-Apr-2013

 ---------------------------------
 #m062X/6-31+G(d) OPT Freq=noraman
 ---------------------------------

 ------------
 bromomethane
 ------------
 Symbolic Z-matrix:
 Charge =  0 Multiplicity = 1

 SCF Done:  E(RM062X) =  -2611.67157905     A.U. after   10 cycles
 SCF Done:  E(RM062X) =  -2611.67160516     A.U. after    8 cycles
 SCF Done:  E(RM062X) =  -2611.67160687     A.U. after    8 cycles
 Optimization completed.
    -- Stationary point found.
 Normal termination of Gaussian 09 at Thu Mar 20 14:18:09 2025.

 ---------------------------------------------------------------------
 #N Geom=AllCheck Guess=TCheck SCRF=Check GenChk RM062X/6-31+G(d) Freq
 ---------------------------------------------------------------------

 Structure from the checkpoint file:  "/srv/scratch/z5358697/gauss/Gau-3855337.chk"
 ------------
 bromomethane
 ------------
 Charge =  0 Multiplicity = 1

                         Standard orientation:
 ---------------------------------------------------------------------
 Center     Atomic      Atomic             Coordinates (Angstroms)
 Number     Number       Type             X           Y           Z
 ---------------------------------------------------------------------
      1          6           0       -1.519417   -0.000036   -0.000006
      2         35           0        0.419575   -0.000012   -0.000001
      3          1           0       -1.856030    0.146755    1.023692
      4          1           0       -1.855730    0.813496   -0.638707
      5          1           0       -1.856850   -0.959613   -0.384898
 ---------------------------------------------------------------------

 SCF Done:  E(RM062X) =  -2611.67160687     A.U. after    1 cycles

 The electronic state is 1-A.
 Alpha  occ. eigenvalues -- -485.46580 -62.74840 -57.28195 -57.27924 -57.27924
 Alpha  occ. eigenvalues --  -10.60532  -8.92295  -6.87795  -6.86742  -6.86741
 Alpha  occ. eigenvalues --   -2.90647  -2.90283  -2.90283  -2.89352  -2.89352
 Alpha  occ. eigenvalues --   -0.89878  -0.75623  -0.51879  -0.51877  -0.44704
 Alpha  occ. eigenvalues --   -0.33588  -0.33586
 Alpha virt. eigenvalues --    0.00043   0.03144   0.05821   0.05826   0.07227
 Alpha virt. eigenvalues --    0.08784   0.08785   0.09458   0.14901   0.20479
 Alpha virt. eigenvalues --    0.20483   0.34627   0.45950   0.50537   0.50541

 Mulliken charges:
               1
     1  C   -0.615132
     2  Br  -0.120599
     3  H    0.245243
     4  H    0.245233
     5  H    0.245256
 Sum of Mulliken charges =   0.00000

 Dipole moment (field-independent basis, Debye):
    X=             -2.1110    Y=             -0.0006    Z=             -0.0001  Tot=              2.1110
 Quadrupole moment (field-independent basis, Debye-Ang):
   XX=            -22.1431   YY=            -26.1549   ZZ=            -26.1539
   XY=              0.0009   XZ=              0.0004   YZ=             -0.0001

  Exact polarizability:  38.267   0.034  25.046   0.011  -0.001  25.035
 Approx polarizability:  44.398   0.004  29.573  -0.001   0.001  29.567

                      1                      2                      3
                      A                      A                      A
 Frequencies --    637.7122               995.6389              1003.0664
 Red. masses --      5.6872                 1.1462                 1.1452
 Frc consts  --      1.3627                 0.6695                 0.6789
 IR Inten    --     13.5619                 5.5476                 5.5283

                      4                      5                      6
                      A                      A                      A
 Frequencies --   1376.9889              1504.3831              1505.9867
 Red. masses --      1.1394                 1.0576                 1.0569
 Frc consts  --      1.2729                 1.4103                 1.4123
 IR Inten    --     23.4034                 6.2899                 6.4318

                      7                      8                      9
                      A                      A                      A
 Frequencies --   3127.1469              3233.8993              3239.2786
 Red. masses --      1.0270                 1.1094                 1.1095
 Frc consts  --      5.9174                 6.8360                 6.8592
 IR Inten    --     14.3707                 0.8399                 0.9208

 - Thermochemistry -
 -------------------
 Temperature   298.150 Kelvin.  Pressure   1.00000 Atm.
 Atom     1 has atomic number  6 and mass  12.00000

 Molecular mass:    93.94181 amu.
 Principal axes and moments of inertia in atomic units:
                           1         2         3
     Eigenvalues --    11.54638 188.25352 188.25399
           X            1.00000   0.00000   0.00000
           Y            0.00000   1.00000  -0.00001
           Z            0.00000   0.00001   1.00000
 This molecule is an asymmetric top.
 Rotational symmetry number  1.
 Rotational temperatures (Kelvin)      7.50139     0.46009     0.46009
 Rotational constants (GHZ):         156.30370     9.58676     9.58674
 Zero-point vibrational energy      99434.2 (Joules/Mol)
                                   23.76535 (Kcal/Mol)
 Vibrational temperatures:    917.52  1432.50  1443.19  1981.18  2164.47
          (Kelvin)           2166.78  4499.26  4652.85  4660.59

 Zero-point correction=                           0.037872 (Hartree/Particle)
 Thermal correction to Energy=                    0.040937
 Thermal correction to Enthalpy=                  0.041881
 Thermal correction to Gibbs Free Energy=         0.012996
 Sum of electronic and zero-point Energies=          -2611.633734
 Sum of electronic and thermal Energies=             -2611.630670
 Sum of electronic and thermal Enthalpies=           -2611.629726
 Sum of electronic and thermal Free Energies=        -2611.658611

                     E (Thermal)             CV                S
                      KCal/Mol        Cal/Mol-Kelvin    Cal/Mol-Kelvin
 Total                   25.688              7.932             60.794
 Electronic               0.000              0.000              0.000
 Translational            0.889              2.981             39.532
 Rotational               0.889              2.981             20.642
 Vibrational             23.911              1.971              0.620

 Optimization completed.
    -- Stationary point found.
 Normal termination of Gaussian 09 at Thu Mar 20 14:18:23 2025.
