 Gaussian 09, Revision D.01,
 Gaussian 09:  ES64L-G09RevD.01 24-Apr-2013

 ---------------------------------
 #m062X/6-31+G(d) OPT Freq=noraman
 ---------------------------------

 ---------------------
 methylsulfanylmethane
 ---------------------
 Symbolic Z-matrix:
 Charge =  0 Multiplicity = 1

 SCF Done:  E(RM062X) =  -477.924030005     A.U. after   11 cycles
 SCF Done:  E(RM062X) =  -477.924466528     A.U. after   10 cycles
 SCF Done:  E(RM062X) =  -477.924509660     A.U. after    8 cycles
 SCF Done:  E(RM062X) =  -477.924512181     A.U. after    8 cycles
 SCF Done:  E(RM062X) =  -477.924512234     A.U. after    6 cycles
 Optimization completed.
    -- Stationary point found.

 1\1\GINC-KATANA2\FOpt\RM062X\6-31+G(d)\C2H6S1\Z5358697\20-Mar-2025\0\\
 #m062X/6-31+G(d) OPT Freq=noraman\\methylsulfanylmethane\\0,1\C,0.9892
 482656,-0.3335302727,0.3324303735\S,1.2258037925,0.1804131398,2.054450
 2656\C,2.8907269666,-0.4907671471,2.3054852017\H,-0.0002976535,0.00720
 24198,0.0204189201\H,1.0319844426,-1.4221944066,0.2378513055\H,1.73952
 97908,0.1216563184,-0.3201361183\H,3.1884924236,-0.2573627892,3.329938
 0144\H,3.6070820711,-0.0320509369,1.618191252\H,2.9004299006,-1.576566
 3255,2.1754707855\\Version=ES64L-G09RevD.01\State=1-A\HF=-477.9245122\

 Normal termination of Gaussian 09 at Thu Mar 20 15:35:25 2025.

 ---------------------------------------------------------------------
 #N Geom=AllCheck Guess=TCheck SCRF=Check GenChk RM062X/6-31+G(d) Freq
 ---------------------------------------------------------------------

 Structure from the checkpoint file:  "/srv/scratch/z5358697/gauss/Gau-1692998.chk"
 ---------------------
 methylsulfanylmethane
 ---------------------
 Charge =  0 Multiplicity = 1

                         Standard orientation:
 ---------------------------------------------------------------------
 Center     Atomic      Atomic             Coordinates (Angstroms)
 Number     Number       Type             X           Y           Z
 ---------------------------------------------------------------------
      1          6           0        1.372339    0.516890    0.000000
      2         16           0        0.000002   -0.667230    0.000000
      3          6           0       -1.372345    0.516887    0.000001
      4          1           0        2.301697   -0.056647   -0.000556
      5          1           0        1.348354    1.146206    0.894062
      6          1           0        1.347737    1.146954   -0.893518
      7          1           0       -2.301703   -0.056645    0.000421
      8          1           0       -1.348277    1.146293   -0.893994
      9          1           0       -1.347808    1.146855    0.893586
 ---------------------------------------------------------------------

 SCF Done:  E(RM062X) =  -477.924512234     A.U. after    1 cycles

 The electronic state is 1-A.
 Alpha  occ. eigenvalues --  -89.91352 -10.57039 -10.57038  -8.25868  -6.17960
 Alpha  occ. eigenvalues --   -6.17717  -6.17246  -0.89377  -0.79775  -0.68033
 Alpha  occ. eigenvalues --   -0.51203  -0.51052  -0.49032  -0.47577  -0.42091
 Alpha  occ. eigenvalues --   -0.36993  -0.27473
 Alpha virt. eigenvalues --    0.02454   0.02536   0.05045   0.06049   0.07618
 Alpha virt. eigenvalues --    0.08124   0.08727   0.08738   0.09342   0.10700
 Alpha virt. eigenvalues --    0.13249   0.14897   0.16223   0.17607   0.21449

 Mulliken charges:
               1
     1  C   -0.810170
     2  S    0.209842
     3  C   -0.810169
     4  H    0.240911
     5  H    0.232181
     6  H    0.232156
     7  H    0.240912
     8  H    0.232178
     9  H    0.232159
 Sum of Mulliken charges =   0.00000

 Dipole moment (field-independent basis, Debye):
    X=              0.0000    Y=              1.7441    Z=              0.0000  Tot=              1.7441
 Quadrupole moment (field-independent basis, Debye-Ang):
   XX=            -24.2517   YY=            -28.8647   ZZ=            -29.0701
   XY=              0.0000   XZ=             -0.0002   YZ=              0.0000

  Exact polarizability:  49.630   0.000  42.122   0.000   0.000  37.144
 Approx polarizability:  52.379   0.000  47.136   0.001   0.000  42.367

                      1                      2                      3
                      A                      A                      A
 Frequencies --    189.3916               196.0335               263.9885
 Red. masses --      1.0410                 1.0956                 2.5104
 Frc consts  --      0.0220                 0.0248                 0.1031
 IR Inten    --      0.0000                 1.1894                 0.0052

                      4                      5                      6
                      A                      A                      A
 Frequencies --    726.5754               779.9412               930.1482
 Red. masses --      4.8242                 6.3579                 1.1720
 Frc consts  --      1.5005                 2.2787                 0.5974
 IR Inten    --      3.2293                 0.0303                 0.0444

                      7                      8                      9
                      A                      A                      A
 Frequencies --    967.7518              1002.6201              1071.1861
 Red. masses --      1.1595                 1.2215                 1.3843
 Frc consts  --      0.6398                 0.7235                 0.9359
 IR Inten    --      0.0000                 5.3037                17.0970

                     10                     11                     12
                      A                      A                      A
 Frequencies --   1378.1440              1405.6260              1492.7809
 Red. masses --      1.1645                 1.1697                 1.0498
 Frc consts  --      1.3031                 1.3616                 1.3783
 IR Inten    --      3.9295                 1.5357                 0.0000

                     13                     14                     15
                      A                      A                      A
 Frequencies --   1502.4295              1505.9492              1514.5298
 Red. masses --      1.0513                 1.0565                 1.0471
 Frc consts  --      1.3982                 1.4117                 1.4151
 IR Inten    --     21.4386                20.4725                 0.6326

                     16                     17                     18
                      A                      A                      A
 Frequencies --   3081.7673              3085.5705              3160.5876
 Red. masses --      1.0311                 1.0311                 1.1072
 Frc consts  --      5.7697                 5.7841                 6.5162
 IR Inten    --     33.3147                27.8900                24.7072

                     19                     20                     21
                      A                      A                      A
 Frequencies --   3168.7652              3182.0199              3183.6399
 Red. masses --      1.1075                 1.1035                 1.1033
 Frc consts  --      6.5520                 6.5833                 6.5886
 IR Inten    --      0.0000                 8.1165                 2.5729

 - Thermochemistry -
 -------------------
 Temperature   298.150 Kelvin.  Pressure   1.00000 Atm.
 Atom     1 has atomic number  6 and mass  12.00000

 Molecular mass:    62.01902 amu.
 Principal axes and moments of inertia in atomic units:
                           1         2         3
     Eigenvalues --   103.05278 237.20626 317.25816
           X            1.00000   0.00000   0.00000
           Y            0.00000   1.00000   0.00000
           Z            0.00000   0.00000   1.00000
 This molecule is an asymmetric top.
 Rotational symmetry number  1.
 Rotational temperatures (Kelvin)      0.84048     0.36514     0.27301
 Rotational constants (GHZ):          17.51279     7.60832     5.68856
 Zero-point vibrational energy     202105.8 (Joules/Mol)
                                   48.30444 (Kcal/Mol)
 Warning -- explicit consideration of   3 degrees of freedom as
           vibrations may cause significant error
 Vibrational temperatures:    272.49   282.05   379.82  1045.38  1122.16
          (Kelvin)           1338.27  1392.38  1442.54  1541.20  1982.84
                             2022.38  2147.78  2161.66  2166.72  2179.07
                             4433.97  4439.44  4547.37  4559.14  4578.21
                             4580.54

 Zero-point correction=                           0.076978 (Hartree/Particle)
 Thermal correction to Energy=                    0.081798
 Thermal correction to Enthalpy=                  0.082742
 Thermal correction to Gibbs Free Energy=         0.050017
 Sum of electronic and zero-point Energies=           -477.847534
 Sum of electronic and thermal Energies=              -477.842714
 Sum of electronic and thermal Enthalpies=            -477.841770
 Sum of electronic and thermal Free Energies=         -477.874495

                     E (Thermal)             CV                S
                      KCal/Mol        Cal/Mol-Kelvin    Cal/Mol-Kelvin
 Total                   51.329             14.932             68.875
 Electronic               0.000              0.000              0.000
 Translational            0.889              2.981             38.294
 Rotational               0.889              2.981             23.565
 Vibrational             49.552              8.971              7.016
 Vibration     1          0.633              1.854              2.234
 Vibration     2          0.636              1.845              2.170
 Vibration     3          0.671              1.739              1.635

 Optimization completed.
    -- Stationary point found.

 1\1\GINC-KATANA2\Freq\RM062X\6-31+G(d)\C2H6S1\Z5358697\20-Mar-2025\0\\
 #N Geom=AllCheck Guess=TCheck SCRF=Check GenChk RM062X/6-31+G(d) Freq\
 \methylsulfanylmethane\\0,1\C,0.9892482656,-0.3335302727,0.3324303735\
 S,1.2258037925,0.1804131398,2.0544502656\C,2.8907269666,-0.4907671471,
 2.3054852017\H,-0.0002976535,0.0072024198,0.0204189201\H,1.0319844426,
 -1.4221944066,0.2378513055\H,1.7395297908,0.1216563184,-0.3201361183\H
 ,3.1884924236,-0.2573627892,3.3299380144\H,3.6070820711,-0.0320509369,
 1.618191252\H,2.9004299006,-1.5765663255,2.1754707855\\Version=ES64L-G

 Normal termination of Gaussian 09 at Thu Mar 20 15:36:04 2025.
