 Gaussian 09, Revision D.01,
 Gaussian 09:  ES64L-G09RevD.01 24-Apr-2013

 ---------------------------------
 #m062X/6-31+G(d) OPT Freq=noraman
 ---------------------------------

 ---------
 but-1-yne
 ---------
 Symbolic Z-matrix:
 Charge =  0 Multiplicity = 1

 SCF Done:  E(RM062X) =  -155.890159724     A.U. after   12 cycles
 SCF Done:  E(RM062X) =  -155.890266436     A.U. after   12 cycles
 SCF Done:  E(RM062X) =  -155.888479038     A.U. after   12 cycles
 SCF Done:  E(RM062X) =  -155.890424764     A.U. after   10 cycles
 SCF Done:  E(RM062X) =  -155.890529525     A.U. after   11 cycles
 SCF Done:  E(RM062X) =  -155.890513495     A.U. after   11 cycles
 SCF Done:  E(RM062X) =  -155.890543967     A.U. after   10 cycles
 SCF Done:  E(RM062X) =  -155.890544049     A.U. after    8 cycles
 Optimization completed.
    -- Stationary point found.
 Normal termination of Gaussian 09 at Thu Mar 20 15:47:10 2025.

 ---------------------------------------------------------------------
 #N Geom=AllCheck Guess=TCheck SCRF=Check GenChk RM062X/6-31+G(d) Freq
 ---------------------------------------------------------------------

 Structure from the checkpoint file:  "/srv/scratch/z5358697/gauss/Gau-3751796.chk"
 ---------
 but-1-yne
 ---------
 Charge =  0 Multiplicity = 1

                         Standard orientation:
 ---------------------------------------------------------------------
 Center     Atomic      Atomic             Coordinates (Angstroms)
 Number     Number       Type             X           Y           Z
 ---------------------------------------------------------------------
      1          6           0        1.574673   -0.491629    0.000000
      2          6           0        0.554199    0.653501    0.000009
      3          6           0       -0.828449    0.164544   -0.000031
      4          6           0       -1.957601   -0.262071    0.000004
      5          1           0        2.593041   -0.092239    0.000012
      6          1           0        1.448329   -1.120817   -0.885234
      7          1           0        1.448322   -1.120852    0.885211
      8          1           0        0.705987    1.290810   -0.878796
      9          1           0        0.705963    1.290763    0.878859
     10          1           0       -2.958570   -0.633734    0.000050
 ---------------------------------------------------------------------

 SCF Done:  E(RM062X) =  -155.890544049     A.U. after    1 cycles

 The electronic state is 1-A.
 Alpha  occ. eigenvalues --  -10.57372 -10.55275 -10.54749 -10.54182  -0.90189
 Alpha  occ. eigenvalues --   -0.82024  -0.72992  -0.60157  -0.53723  -0.53341
 Alpha  occ. eigenvalues --   -0.46565  -0.43813  -0.43085  -0.32785  -0.32706
 Alpha virt. eigenvalues --    0.02464   0.03488   0.04417   0.05187   0.05961
 Alpha virt. eigenvalues --    0.07310   0.07493   0.09319   0.09843   0.09897
 Alpha virt. eigenvalues --    0.11309   0.12163   0.15096   0.15679   0.16550

 Mulliken charges:
               1
     1  C   -0.693319
     2  C   -0.511661
     3  C    0.423513
     4  C   -0.621040
     5  H    0.209647
     6  H    0.222649
     7  H    0.222649
     8  H    0.239270
     9  H    0.239272
    10  H    0.269020
 Sum of Mulliken charges =   0.00000

 Dipole moment (field-independent basis, Debye):
    X=              0.7471    Y=              0.1584    Z=              0.0001  Tot=              0.7637
 Quadrupole moment (field-independent basis, Debye-Ang):
   XX=            -22.1709   YY=            -25.8370   ZZ=            -26.4043
   XY=              2.0784   XZ=             -0.0002   YZ=             -0.0001

  Exact polarizability:  59.332   6.236  37.274   0.000   0.000  33.166
 Approx polarizability:  67.074  11.434  41.475  -0.001   0.000  36.982

                      1                      2                      3
                      A                      A                      A
 Frequencies --    198.6098               207.3994               373.8226
 Red. masses --      1.1323                 3.0320                 2.4286
 Frc consts  --      0.0263                 0.0768                 0.2000
 IR Inten    --      0.5892                 1.4131                 8.9313

                      4                      5                      6
                      A                      A                      A
 Frequencies --    531.9665               669.7653               692.8300
 Red. masses --      3.8762                 1.2592                 1.2575
 Frc consts  --      0.6463                 0.3328                 0.3556
 IR Inten    --      9.3693                61.0133                58.2035

                      7                      8                      9
                      A                      A                      A
 Frequencies --    782.9464               859.6180              1044.4929
 Red. masses --      1.1726                 2.6044                 2.2661
 Frc consts  --      0.4235                 1.1339                 1.4566
 IR Inten    --      0.9950                 0.0023                 0.3687

                     10                     11                     12
                      A                      A                      A
 Frequencies --   1099.0395              1114.8949              1291.1272
 Red. masses --      1.9097                 1.5000                 1.1444
 Frc consts  --      1.3591                 1.0985                 1.1240
 IR Inten    --      3.7065                 0.5903                 0.0110

                     13                     14                     15
                      A                      A                      A
 Frequencies --   1356.7714              1425.1695              1498.1984
 Red. masses --      1.5007                 1.2368                 1.0741
 Frc consts  --      1.6276                 1.4800                 1.4205
 IR Inten    --      7.6868                 2.6752                 3.3333

                     16                     17                     18
                      A                      A                      A
 Frequencies --   1514.6506              1523.6728              2265.3235
 Red. masses --      1.0388                 1.0546                 5.8528
 Frc consts  --      1.4041                 1.4426                17.6960
 IR Inten    --      8.0374                 4.9347                 6.2393

                     19                     20                     21
                      A                      A                      A
 Frequencies --   3079.4461              3081.2534              3115.6732
 Red. masses --      1.0457                 1.0487                 1.1028
 Frc consts  --      5.8426                 5.8661                 6.3076
 IR Inten    --     18.0208                22.4941                 3.6240

                     22                     23                     24
                      A                      A                      A
 Frequencies --   3159.7992              3164.3066              3495.3303
 Red. masses --      1.1029                 1.1039                 1.1651
 Frc consts  --      6.4881                 6.5122                 8.3866
 IR Inten    --     24.1656                21.7829                64.2593

 - Thermochemistry -
 -------------------
 Temperature   298.150 Kelvin.  Pressure   1.00000 Atm.
 Atom     1 has atomic number  6 and mass  12.00000

 Molecular mass:    54.04695 amu.
 Principal axes and moments of inertia in atomic units:
                           1         2         3
     Eigenvalues --    66.46214 397.62882 441.69135
           X            1.00000   0.00197   0.00000
           Y           -0.00197   1.00000   0.00000
           Z            0.00000   0.00000   1.00000
 This molecule is an asymmetric top.
 Rotational symmetry number  1.
 Rotational temperatures (Kelvin)      1.30321     0.21783     0.19610
 Rotational constants (GHZ):          27.15443     4.53876     4.08598
 Zero-point vibrational energy     224575.6 (Joules/Mol)
                                   53.67485 (Kcal/Mol)
 Warning -- explicit consideration of   4 degrees of freedom as
           vibrations may cause significant error
 Vibrational temperatures:    285.75   298.40   537.85   765.38   963.64
          (Kelvin)            996.83  1126.48  1236.80  1502.79  1581.27
                             1604.08  1857.64  1952.09  2050.50  2155.57
                             2179.24  2192.22  3259.29  4430.63  4433.23
                             4482.75  4546.24  4552.73  5028.99

 Zero-point correction=                           0.085536 (Hartree/Particle)
 Thermal correction to Energy=                    0.090527
 Thermal correction to Enthalpy=                  0.091471
 Thermal correction to Gibbs Free Energy=         0.058659
 Sum of electronic and zero-point Energies=           -155.805008
 Sum of electronic and thermal Energies=              -155.800018
 Sum of electronic and thermal Enthalpies=            -155.799073
 Sum of electronic and thermal Free Energies=         -155.831885

                     E (Thermal)             CV                S
                      KCal/Mol        Cal/Mol-Kelvin    Cal/Mol-Kelvin
 Total                   56.806             16.778             69.058
 Electronic               0.000              0.000              0.000
 Translational            0.889              2.981             37.884
 Rotational               0.889              2.981             23.972
 Vibrational             55.029             10.816              7.203
 Vibration     1          0.637              1.842              2.146
 Vibration     2          0.641              1.829              2.066
 Vibration     3          0.745              1.526              1.064
 Vibration     4          0.887              1.179              0.583

 Optimization completed.
    -- Stationary point found.
 Normal termination of Gaussian 09 at Thu Mar 20 15:48:08 2025.
