 Gaussian 09, Revision D.01,
 Gaussian 09:  ES64L-G09RevD.01 24-Apr-2013

 ---------------------------------
 #m062X/6-31+G(d) OPT Freq=noraman
 ---------------------------------

 -----------------------
 N,N-dimethylmethanamine
 -----------------------
 Symbolic Z-matrix:
 Charge =  0 Multiplicity = 1

 SCF Done:  E(RM062X) =  -174.378563623     A.U. after   11 cycles
 SCF Done:  E(RM062X) =  -174.380642725     A.U. after   10 cycles
 SCF Done:  E(RM062X) =  -174.380771638     A.U. after    9 cycles
 SCF Done:  E(RM062X) =  -174.380782748     A.U. after    9 cycles
 SCF Done:  E(RM062X) =  -174.380788169     A.U. after    8 cycles
 SCF Done:  E(RM062X) =  -174.380784101     A.U. after    7 cycles
 SCF Done:  E(RM062X) =  -174.380787543     A.U. after    7 cycles
 Optimization completed.
    -- Stationary point found.

 1\1\GINC-KATANA1\FOpt\RM062X\6-31+G(d)\C3H9N1\Z5358697\21-Mar-2025\0\\
 #m062X/6-31+G(d) OPT Freq=noraman\\N,N-dimethylmethanamine\\0,1\C,-0.2
 712746239,-0.257196432,1.0356116443\N,0.9012726366,-0.5147033413,1.850
 6407259\C,1.7413453189,0.6654298501,1.9346647302\C,1.6505128773,-1.645
 2151267,1.3347577269\H,-0.9108035743,-1.1449997693,1.0164361084\H,-0.0
 085735848,0.0049895698,-0.0084792313\H,-0.844356341,0.5703525953,1.464
 4768253\H,2.5976670214,0.4635829968,2.5851643822\H,1.1715729273,1.4951
 833669,2.3635673283\H,2.123948027,0.9810506778,0.9438087291\H,2.506823

 Normal termination of Gaussian 09 at Fri Mar 21 11:36:40 2025.

 ---------------------------------------------------------------------
 #N Geom=AllCheck Guess=TCheck SCRF=Check GenChk RM062X/6-31+G(d) Freq
 ---------------------------------------------------------------------

 Structure from the checkpoint file:  "/srv/scratch/z5358697/gauss/Gau-4139931.chk"
 -----------------------
 N,N-dimethylmethanamine
 -----------------------
 Charge =  0 Multiplicity = 1

                         Standard orientation:
 ---------------------------------------------------------------------
 Center     Atomic      Atomic             Coordinates (Angstroms)
 Number     Number       Type             X           Y           Z
 ---------------------------------------------------------------------
      1          6           0        1.359367    0.235800    0.062771
      2          7           0        0.000205    0.000138   -0.387332
      3          6           0       -0.883956    1.059012    0.062716
      4          6           0       -0.475479   -1.294786    0.062610
      5          1           0        2.017185   -0.551119   -0.318797
      6          1           0        1.439890    0.251136    1.167832
      7          1           0        1.713990    1.196924   -0.321504
      8          1           0       -1.893948    0.884445   -0.320195
      9          1           0       -0.532586    2.021873   -0.320072
     10          1           0       -0.936888    1.121838    1.167726
     11          1           0       -1.485118   -1.471713   -0.320214
     12          1           0       -0.503878   -1.371567    1.167672
     13          1           0        0.180325   -2.082933   -0.319704
 ---------------------------------------------------------------------

 SCF Done:  E(RM062X) =  -174.380787543     A.U. after    1 cycles

 The electronic state is 1-A.
 Alpha  occ. eigenvalues --  -14.75443 -10.56239 -10.56237 -10.56235  -1.03233
 Alpha  occ. eigenvalues --   -0.79802  -0.79796  -0.67429  -0.54263  -0.53681
 Alpha  occ. eigenvalues --   -0.53679  -0.45828  -0.45819  -0.43227  -0.42130
 Alpha  occ. eigenvalues --   -0.42122  -0.27768
 Alpha virt. eigenvalues --    0.02768   0.04256   0.04257   0.04835   0.07228
 Alpha virt. eigenvalues --    0.07228   0.07419   0.08996   0.08997   0.12087
 Alpha virt. eigenvalues --    0.14007   0.14010   0.19224   0.21183   0.21187

 Mulliken charges:
               1
     1  C   -0.497554
     2  N   -0.307894
     3  C   -0.497576
     4  C   -0.497964
     5  H    0.203466
     6  H    0.193277
     7  H    0.203604
     8  H    0.203507
     9  H    0.203562
    10  H    0.193293
    11  H    0.203523
    12  H    0.193293
    13  H    0.203464
 Sum of Mulliken charges =   0.00000

 Dipole moment (field-independent basis, Debye):
    X=             -0.0003    Y=              0.0000    Z=              0.6777  Tot=              0.6777
 Quadrupole moment (field-independent basis, Debye-Ang):
   XX=            -26.5265   YY=            -26.5280   ZZ=            -30.5954
   XY=             -0.0006   XZ=              0.0005   YZ=             -0.0008

  Exact polarizability:  47.165   0.067  47.178  -0.003  -0.031  43.642
 Approx polarizability:  49.148  -0.002  49.147  -0.003   0.001  50.202

                      1                      2                      3
                      A                      A                      A
 Frequencies --    256.0733               285.8604               291.9846
 Red. masses --      1.0161                 1.0838                 1.0908
 Frc consts  --      0.0393                 0.0522                 0.0548
 IR Inten    --      0.0078                 0.5573                 0.5296

                      4                      5                      6
                      A                      A                      A
 Frequencies --    380.6386               433.5348               435.1059
 Red. masses --      2.2446                 2.0642                 2.0361
 Frc consts  --      0.1916                 0.2286                 0.2271
 IR Inten    --      9.5416                 0.0156                 0.0206

                      7                      8                      9
                      A                      A                      A
 Frequencies --    870.1410              1076.4662              1086.2464
 Red. masses --      3.7505                 1.2093                 1.7867
 Frc consts  --      1.6731                 0.8256                 1.2421
 IR Inten    --     27.0742                 0.1940                17.3217

                     10                     11                     12
                      A                      A                      A
 Frequencies --   1086.8981              1133.1249              1135.6217
 Red. masses --      1.7898                 1.3094                 1.3048
 Frc consts  --      1.2458                 0.9906                 0.9915
 IR Inten    --     17.8014                 8.7759                 8.2857

                     13                     14                     15
                      A                      A                      A
 Frequencies --   1220.6283              1333.5741              1334.1644
 Red. masses --      1.6326                 2.8494                 2.8537
 Frc consts  --      1.4332                 2.9856                 2.9928
 IR Inten    --     30.0195                19.3789                19.4887

                     16                     17                     18
                      A                      A                      A
 Frequencies --   1457.0057              1458.5123              1500.6487
 Red. masses --      1.1837                 1.1840                 1.2058
 Frc consts  --      1.4805                 1.4839                 1.5999
 IR Inten    --      0.6530                 0.4923                 0.6891

                     19                     20                     21
                      A                      A                      A
 Frequencies --   1506.5112              1507.4225              1509.6689
 Red. masses --      1.0422                 1.0473                 1.0464
 Frc consts  --      1.3936                 1.4022                 1.4051
 IR Inten    --      6.7405                 6.8685                 0.9153

                     22                     23                     24
                      A                      A                      A
 Frequencies --   1529.4900              1532.9957              1533.6056
 Red. masses --      1.0470                 1.0601                 1.0595
 Frc consts  --      1.4430                 1.4678                 1.4682
 IR Inten    --     27.1501                13.8842                12.9181

                     25                     26                     27
                      A                      A                      A
 Frequencies --   2967.9448              2969.0822              2978.0971
 Red. masses --      1.0585                 1.0587                 1.0602
 Frc consts  --      5.4935                 5.4988                 5.5399
 IR Inten    --     48.9582                49.0096               190.5524

                     28                     29                     30
                      A                      A                      A
 Frequencies --   3108.7947              3110.5529              3115.0015
 Red. masses --      1.0731                 1.0723                 1.0715
 Frc consts  --      6.1102                 6.1130                 6.1258
 IR Inten    --     28.0517                38.7689                35.6716

                     31                     32                     33
                      A                      A                      A
 Frequencies --   3156.6607              3158.7397              3162.7182
 Red. masses --      1.1045                 1.1037                 1.1039
 Frc consts  --      6.4842                 6.4884                 6.5057
 IR Inten    --      9.2093                31.8859                32.5974

 - Thermochemistry -
 -------------------
 Temperature   298.150 Kelvin.  Pressure   1.00000 Atm.
 Atom     1 has atomic number  6 and mass  12.00000

 Molecular mass:    59.07350 amu.
 Principal axes and moments of inertia in atomic units:
                           1         2         3
     Eigenvalues --   205.79140 205.89050 362.09445
           X            0.99991  -0.01328   0.00000
           Y            0.01328   0.99991  -0.00001
           Z            0.00000   0.00001   1.00000
 This molecule is an asymmetric top.
 Rotational symmetry number  1.
 Rotational temperatures (Kelvin)      0.42088     0.42068     0.23920
 Rotational constants (GHZ):           8.76976     8.76554     4.98417
 Zero-point vibrational energy     320739.8 (Joules/Mol)
                                   76.65866 (Kcal/Mol)
 Warning -- explicit consideration of   6 degrees of freedom as
           vibrations may cause significant error
 Vibrational temperatures:    368.43   411.29   420.10   547.65   623.76
          (Kelvin)            626.02  1251.94  1548.79  1562.86  1563.80
                             1630.31  1633.90  1756.21  1918.71  1919.56
                             2096.30  2098.47  2159.10  2167.53  2168.84
                             2172.07  2200.59  2205.64  2206.51  4270.21
                             4271.84  4284.81  4472.86  4475.39  4481.79
                             4541.73  4544.72  4550.44

 Zero-point correction=                           0.122163 (Hartree/Particle)
 Thermal correction to Energy=                    0.127489
 Thermal correction to Enthalpy=                  0.128433
 Thermal correction to Gibbs Free Energy=         0.094972
 Sum of electronic and zero-point Energies=           -174.258624
 Sum of electronic and thermal Energies=              -174.253299
 Sum of electronic and thermal Enthalpies=            -174.252355
 Sum of electronic and thermal Free Energies=         -174.285815

                     E (Thermal)             CV                S
                      KCal/Mol        Cal/Mol-Kelvin    Cal/Mol-Kelvin
 Total                   80.000             18.460             70.424
 Electronic               0.000              0.000              0.000
 Translational            0.889              2.981             38.149
 Rotational               0.889              2.981             24.243
 Vibrational             78.223             12.499              8.031
 Vibration     1          0.666              1.753              1.688
 Vibration     2          0.684              1.700              1.498
 Vibration     3          0.687              1.689              1.462
 Vibration     4          0.750              1.511              1.037
 Vibration     5          0.794              1.397              0.847
 Vibration     6          0.796              1.394              0.842

 1\1\GINC-KATANA1\Freq\RM062X\6-31+G(d)\C3H9N1\Z5358697\21-Mar-2025\0\\
 #N Geom=AllCheck Guess=TCheck SCRF=Check GenChk RM062X/6-31+G(d) Freq\
 \N,N-dimethylmethanamine\\0,1\C,-0.2712746239,-0.257196432,1.035611644
 3\N,0.9012726366,-0.5147033413,1.8506407259\C,1.7413453189,0.665429850
 1,1.9346647302\C,1.6505128773,-1.6452151267,1.3347577269\H,-0.91080357
 43,-1.1449997693,1.0164361084\H,-0.0085735848,0.0049895698,-0.00847923
 13\H,-0.844356341,0.5703525953,1.4644768253\H,2.5976670214,0.463582996
 8,2.5851643822\H,1.1715729273,1.4951833669,2.3635673283\H,2.123948027,

 Normal termination of Gaussian 09 at Fri Mar 21 11:38:12 2025.
