 Gaussian 09, Revision D.01,
 Gaussian 09:  ES64L-G09RevD.01 24-Apr-2013

 ---------------------------------
 #m062X/6-31+G(d) OPT Freq=noraman
 ---------------------------------

 --------------
 2-bromopropane
 --------------
 Symbolic Z-matrix:
 Charge =  0 Multiplicity = 1

 SCF Done:  E(RM062X) =  -2690.27291072     A.U. after   11 cycles
 SCF Done:  E(RM062X) =  -2690.27329704     A.U. after   10 cycles
 SCF Done:  E(RM062X) =  -2690.27332172     A.U. after    9 cycles
 SCF Done:  E(RM062X) =  -2690.27332307     A.U. after    8 cycles
 Optimization completed.
    -- Stationary point found.
 Normal termination of Gaussian 09 at Thu Mar 20 23:23:13 2025.

 ---------------------------------------------------------------------
 #N Geom=AllCheck Guess=TCheck SCRF=Check GenChk RM062X/6-31+G(d) Freq
 ---------------------------------------------------------------------

 Structure from the checkpoint file:  "/srv/scratch/z5358697/gauss/Gau-4057033.chk"
 --------------
 2-bromopropane
 --------------
 Charge =  0 Multiplicity = 1

                         Standard orientation:
 ---------------------------------------------------------------------
 Center     Atomic      Atomic             Coordinates (Angstroms)
 Number     Number       Type             X           Y           Z
 ---------------------------------------------------------------------
      1          6           0       -1.540843   -1.260643   -0.130187
      2          6           0       -0.910999   -0.000001    0.432803
      3          6           0       -1.540844    1.260643   -0.130187
      4         35           0        1.003723    0.000000   -0.026117
      5          1           0       -1.068693   -2.161529    0.268325
      6          1           0       -2.606103   -1.280249    0.130226
      7          1           0       -1.449486   -1.272374   -1.220668
      8          1           0       -0.925607    0.000001    1.523743
      9          1           0       -1.068687    2.161529    0.268317
     10          1           0       -2.606102    1.280254    0.130235
     11          1           0       -1.449495    1.272371   -1.220669
 ---------------------------------------------------------------------

 SCF Done:  E(RM062X) =  -2690.27332307     A.U. after    1 cycles

 The electronic state is 1-A.
 Alpha  occ. eigenvalues -- -485.46048 -62.74239 -57.27412 -57.27157 -57.27152
 Alpha  occ. eigenvalues --  -10.61673 -10.55469 -10.55468  -8.91465  -6.86837
 Alpha  occ. eigenvalues --   -6.85890  -6.85885  -2.89687  -2.89362  -2.89357
 Alpha  occ. eigenvalues --   -2.88519  -2.88519  -0.93635  -0.81929  -0.79759
 Alpha  occ. eigenvalues --   -0.67025  -0.55065  -0.52331  -0.49607  -0.46866
 Alpha  occ. eigenvalues --   -0.43310  -0.42850  -0.39823  -0.33115  -0.33020
 Alpha virt. eigenvalues --    0.01427   0.02356   0.03802   0.04207   0.04937
 Alpha virt. eigenvalues --    0.06882   0.07210   0.08114   0.08118   0.09917
 Alpha virt. eigenvalues --    0.11215   0.11442   0.12569   0.13014   0.14179

 Mulliken charges:
               1
     1  C   -0.563745
     2  C   -0.394438
     3  C   -0.563746
     4  Br  -0.085994
     5  H    0.233687
     6  H    0.212792
     7  H    0.234274
     8  H    0.246415
     9  H    0.233687
    10  H    0.212792
    11  H    0.234274
 Sum of Mulliken charges =   0.00000

 Dipole moment (field-independent basis, Debye):
    X=             -2.3682    Y=              0.0000    Z=              0.4162  Tot=              2.4045
 Quadrupole moment (field-independent basis, Debye-Ang):
   XX=            -38.0374   YY=            -39.0765   ZZ=            -39.0540
   XY=              0.0000   XZ=             -0.7936   YZ=              0.0000

  Exact polarizability:  66.661   0.006  51.390  -1.336   0.000  46.958
 Approx polarizability:  77.311   0.000  57.576  -3.410   0.000  58.743

                      1                      2                      3
                      A                      A                      A
 Frequencies --    263.3812               298.7320               314.8049
 Red. masses --      1.0238                 1.3241                 3.0219
 Frc consts  --      0.0418                 0.0696                 0.1764
 IR Inten    --      0.0162                 0.9428                 0.4743

                      4                      5                      6
                      A                      A                      A
 Frequencies --    319.0116               433.1407               581.8819
 Red. masses --      1.9133                 2.3173                 2.9661
 Frc consts  --      0.1147                 0.2561                 0.5917
 IR Inten    --      1.6996                 2.6239                19.3557

                      7                      8                      9
                      A                      A                      A
 Frequencies --    921.3518               949.2719               969.0485
 Red. masses --      2.4264                 1.1364                 1.3980
 Frc consts  --      1.2136                 0.6034                 0.7735
 IR Inten    --      6.1466                 1.4796                 0.0468

                     10                     11                     12
                      A                      A                      A
 Frequencies --   1081.2747              1169.0461              1199.4343
 Red. masses --      1.3000                 2.0896                 1.9201
 Frc consts  --      0.8955                 1.6826                 1.6275
 IR Inten    --     11.2466                 0.5832                19.7287

                     13                     14                     15
                      A                      A                      A
 Frequencies --   1286.0608              1366.9335              1429.9781
 Red. masses --      1.2674                 1.3669                 1.3500
 Frc consts  --      1.2351                 1.5048                 1.6264
 IR Inten    --     50.2431                 0.2641                13.6144

                     16                     17                     18
                      A                      A                      A
 Frequencies --   1442.7996              1508.7949              1509.7117
 Red. masses --      1.2452                 1.0446                 1.0467
 Frc consts  --      1.5272                 1.4011                 1.4056
 IR Inten    --      8.4865                 2.9288                 1.0524

                     19                     20                     21
                      A                      A                      A
 Frequencies --   1522.3576              1532.1348              3072.7194
 Red. masses --      1.0434                 1.0454                 1.0367
 Frc consts  --      1.4247                 1.4458                 5.7669
 IR Inten    --     11.5482                 9.3408                12.0669

                     22                     23                     24
                      A                      A                      A
 Frequencies --   3076.7698              3140.6276              3146.6197
 Red. masses --      1.0367                 1.0936                 1.1011
 Frc consts  --      5.7823                 6.3552                 6.4235
 IR Inten    --     24.4974                 3.4355                 0.9495

                     25                     26                     27
                      A                      A                      A
 Frequencies --   3157.0634              3171.1692              3176.3601
 Red. masses --      1.0962                 1.1035                 1.1015
 Frc consts  --      6.4373                 6.5383                 6.5481
 IR Inten    --     24.9858                 9.0284                17.4685

 - Thermochemistry -
 -------------------
 Temperature   298.150 Kelvin.  Pressure   1.00000 Atm.
 Atom     1 has atomic number  6 and mass  12.00000

 Molecular mass:   121.97311 amu.
 Principal axes and moments of inertia in atomic units:
                           1         2         3
     Eigenvalues --   222.65308 615.92314 779.84348
           X            0.99998   0.00000   0.00695
           Y            0.00000   1.00000   0.00000
           Z           -0.00695   0.00000   0.99998
 This molecule is an asymmetric top.
 Rotational symmetry number  1.
 Rotational temperatures (Kelvin)      0.38901     0.14062     0.11107
 Rotational constants (GHZ):           8.10562     2.93014     2.31424
 Zero-point vibrational energy     251457.9 (Joules/Mol)
                                   60.09988 (Kcal/Mol)
 Warning -- explicit consideration of   6 degrees of freedom as
           vibrations may cause significant error
 Vibrational temperatures:    378.95   429.81   452.93   458.99   623.19
          (Kelvin)            837.20  1325.62  1365.79  1394.24  1555.71
                             1681.99  1725.72  1850.35  1966.71  2057.42
                             2075.86  2170.82  2172.14  2190.33  2204.40
                             4420.95  4426.78  4518.66  4527.28  4542.30
                             4562.60  4570.07

 Zero-point correction=                           0.095775 (Hartree/Particle)
 Thermal correction to Energy=                    0.100995
 Thermal correction to Enthalpy=                  0.101939
 Thermal correction to Gibbs Free Energy=         0.066705
 Sum of electronic and zero-point Energies=          -2690.177548
 Sum of electronic and thermal Energies=             -2690.172328
 Sum of electronic and thermal Enthalpies=           -2690.171384
 Sum of electronic and thermal Free Energies=        -2690.206618

                     E (Thermal)             CV                S
                      KCal/Mol        Cal/Mol-Kelvin    Cal/Mol-Kelvin
 Total                   63.375             17.919             74.157
 Electronic               0.000              0.000              0.000
 Translational            0.889              2.981             40.310
 Rotational               0.889              2.981             26.172
 Vibrational             61.598             11.957              7.674
 Vibration     1          0.670              1.740              1.639
 Vibration     2          0.692              1.676              1.424
 Vibration     3          0.702              1.645              1.337
 Vibration     4          0.705              1.637              1.315
 Vibration     5          0.794              1.398              0.848
 Vibration     6          0.939              1.071              0.482

 Optimization completed.
    -- Stationary point found.
 Normal termination of Gaussian 09 at Thu Mar 20 23:24:35 2025.
