 Gaussian 09, Revision D.01,
 Gaussian 09:  ES64L-G09RevD.01 24-Apr-2013

 ---------------------------------
 #m062X/6-31+G(d) OPT Freq=noraman
 ---------------------------------

 ----------
 piperazine
 ----------
 Symbolic Z-matrix:
 Charge =  0 Multiplicity = 1

 SCF Done:  E(RM062X) =  -267.806157931     A.U. after   11 cycles
 SCF Done:  E(RM062X) =  -267.809178240     A.U. after   11 cycles
 SCF Done:  E(RM062X) =  -267.809753212     A.U. after   10 cycles
 SCF Done:  E(RM062X) =  -267.809843894     A.U. after    9 cycles
 SCF Done:  E(RM062X) =  -267.809846145     A.U. after    9 cycles
 Optimization completed.
    -- Stationary point found.
 Normal termination of Gaussian 09 at Tue Mar 18 19:48:54 2025.

 ---------------------------------------------------------------------
 #N Geom=AllCheck Guess=TCheck SCRF=Check GenChk RM062X/6-31+G(d) Freq
 ---------------------------------------------------------------------

 Structure from the checkpoint file:  "/srv/scratch/z5358697/gauss/Gau-833297.chk"
 ----------
 piperazine
 ----------
 Charge =  0 Multiplicity = 1

                         Standard orientation:
 ---------------------------------------------------------------------
 Center     Atomic      Atomic             Coordinates (Angstroms)
 Number     Number       Type             X           Y           Z
 ---------------------------------------------------------------------
      1          6           0        0.730833    1.206390   -0.205785
      2          6           0       -0.736104    1.203175    0.205773
      3          7           0       -1.368992   -0.002977   -0.322851
      4          6           0       -0.730826   -1.206360    0.205771
      5          6           0        0.736113   -1.203205   -0.205783
      6          7           0        1.368991    0.002977    0.322816
      7          1           0        1.233357    2.084627    0.211986
      8          1           0        0.782593    1.259903   -1.307872
      9          1           0       -0.788069    1.256445    1.307878
     10          1           0       -1.242548    2.079237   -0.211862
     11          1           0       -2.361575   -0.005140   -0.104533
     12          1           0       -0.782572   -1.259857    1.307876
     13          1           0       -1.233444   -2.084625   -0.211859
     14          1           0        1.242459   -2.079241    0.211997
     15          1           0        0.788094   -1.256496   -1.307870
     16          1           0        2.361609    0.005142    0.104655
 ---------------------------------------------------------------------

 SCF Done:  E(RM062X) =  -267.809846145     A.U. after    1 cycles

 The electronic state is 1-A.
 Alpha  occ. eigenvalues --  -14.74614 -14.74614 -10.56491 -10.56489 -10.56454
 Alpha  occ. eigenvalues --  -10.56452  -1.04012  -0.98050  -0.85595  -0.76164
 Alpha  occ. eigenvalues --   -0.71641  -0.63535  -0.60192  -0.54314  -0.52444
 Alpha  occ. eigenvalues --   -0.50796  -0.49034  -0.47713  -0.45073  -0.40837
 Alpha  occ. eigenvalues --   -0.39278  -0.38520  -0.29127  -0.28438
 Alpha virt. eigenvalues --    0.02019   0.02299   0.03969   0.04805   0.05221
 Alpha virt. eigenvalues --    0.05750   0.07473   0.07961   0.09398   0.09904
 Alpha virt. eigenvalues --    0.09978   0.11777   0.13197   0.13993   0.14823

 Mulliken charges:
               1
     1  C   -0.304997
     2  C   -0.304948
     3  N   -0.575450
     4  C   -0.304998
     5  C   -0.304949
     6  N   -0.575473
     7  H    0.199382
     8  H    0.200672
     9  H    0.200665
    10  H    0.199384
    11  H    0.385304
    12  H    0.200668
    13  H    0.199381
    14  H    0.199385
    15  H    0.200669
    16  H    0.385306
 Sum of Mulliken charges =   0.00000

 Dipole moment (field-independent basis, Debye):
    X=              0.0001    Y=              0.0000    Z=              0.0002  Tot=              0.0002
 Quadrupole moment (field-independent basis, Debye-Ang):
   XX=            -34.1472   YY=            -36.0318   ZZ=            -43.3001
   XY=              0.0040   XZ=             -3.3881   YZ=             -0.0074

  Exact polarizability:  60.663  -0.009  65.484   0.597   0.001  58.013
 Approx polarizability:  66.545  -0.007  69.679   1.642   0.004  69.573

                      1                      2                      3
                      A                      A                      A
 Frequencies --    266.9463               278.6073               418.4431
 Red. masses --      2.1742                 1.7804                 2.2285
 Frc consts  --      0.0913                 0.0814                 0.2299
 IR Inten    --     10.1324                 1.6209                 0.0000

                      4                      5                      6
                      A                      A                      A
 Frequencies --    458.3680               470.6449               571.4327
 Red. masses --      2.6786                 2.9950                 1.4319
 Frc consts  --      0.3316                 0.3909                 0.2755
 IR Inten    --      0.0000                 0.0000                78.8523

                      7                      8                      9
                      A                      A                      A
 Frequencies --    791.7705               832.7936               868.4821
 Red. masses --      1.4280                 1.5258                 3.2436
 Frc consts  --      0.5274                 0.6235                 1.4414
 IR Inten    --      0.0007               188.6974                 0.0000

                     10                     11                     12
                      A                      A                      A
 Frequencies --    875.9054               915.8093               962.8136
 Red. masses --      1.4529                 2.1766                 1.9057
 Frc consts  --      0.6567                 1.0756                 1.0408
 IR Inten    --      0.0000                 0.6821                 3.0195

                     13                     14                     15
                      A                      A                      A
 Frequencies --   1082.5038              1084.5530              1101.3057
 Red. masses --      1.5720                 1.6586                 2.3153
 Frc consts  --      1.0854                 1.1495                 1.6546
 IR Inten    --      0.0000                 1.0387                18.0422

                     16                     17                     18
                      A                      A                      A
 Frequencies --   1153.1441              1172.2097              1200.8489
 Red. masses --      2.2252                 2.2835                 2.6206
 Frc consts  --      1.7433                 1.8487                 2.2265
 IR Inten    --      0.0000                 0.0000                47.4359

                     19                     20                     21
                      A                      A                      A
 Frequencies --   1223.3571              1229.1665              1310.0151
 Red. masses --      1.1818                 1.0580                 1.2477
 Frc consts  --      1.0421                 0.9418                 1.2616
 IR Inten    --      2.8658                 0.0000                 9.5491

                     22                     23                     24
                      A                      A                      A
 Frequencies --   1341.0397              1359.8903              1374.5444
 Red. masses --      1.1709                 1.4418                 1.3508
 Frc consts  --      1.2407                 1.5710                 1.5037
 IR Inten    --      0.0000                 0.0002                77.0739

                     25                     26                     27
                      A                      A                      A
 Frequencies --   1421.9054              1456.2777              1482.8210
 Red. masses --      1.4196                 1.7287                 1.2998
 Frc consts  --      1.6910                 2.1601                 1.6839
 IR Inten    --      2.4679                 0.0000                 0.0000

                     28                     29                     30
                      A                      A                      A
 Frequencies --   1502.8481              1502.9123              1515.8572
 Red. masses --      1.0915                 1.0953                 1.1062
 Frc consts  --      1.4525                 1.4577                 1.4976
 IR Inten    --      2.0729                 0.1402                14.2320

                     31                     32                     33
                      A                      A                      A
 Frequencies --   1522.8706              1524.7876              2999.0485
 Red. masses --      1.1091                 1.3849                 1.0713
 Frc consts  --      1.5155                 1.8970                 5.6769
 IR Inten    --      0.0001                 6.0516                65.9265

                     34                     35                     36
                      A                      A                      A
 Frequencies --   3000.9256              3010.5575              3010.6910
 Red. masses --      1.0705                 1.0687                 1.0696
 Frc consts  --      5.6802                 5.7067                 5.7122
 IR Inten    --      0.0120               233.8970                 0.0071

                     37                     38                     39
                      A                      A                      A
 Frequencies --   3119.7158              3119.9904              3121.0993
 Red. masses --      1.0953                 1.0948                 1.0904
 Frc consts  --      6.2808                 6.2790                 6.2580
 IR Inten    --     52.0613                 0.2494                92.1795

                     40                     41                     42
                      A                      A                      A
 Frequencies --   3122.3950              3557.4483              3557.5263
 Red. masses --      1.0910                 1.0754                 1.0753
 Frc consts  --      6.2668                 8.0189                 8.0178
 IR Inten    --      0.0205                 0.0296                 1.3588

 - Thermochemistry -
 -------------------
 Temperature   298.150 Kelvin.  Pressure   1.00000 Atm.
 Atom     1 has atomic number  6 and mass  12.00000

 Molecular mass:    86.08440 amu.
 Principal axes and moments of inertia in atomic units:
                           1         2         3
     Eigenvalues --   376.75588 393.76977 684.99937
           X            0.99956  -0.00187  -0.02953
           Y            0.00187   1.00000  -0.00006
           Z            0.02953   0.00001   0.99956
 This molecule is an asymmetric top.
 Rotational symmetry number  1.
 Rotational temperatures (Kelvin)      0.22989     0.21996     0.12644
 Rotational constants (GHZ):           4.79021     4.58324     2.63466
 Zero-point vibrational energy     394135.3 (Joules/Mol)
                                   94.20059 (Kcal/Mol)
 Warning -- explicit consideration of   6 degrees of freedom as
           vibrations may cause significant error
 Vibrational temperatures:    384.08   400.85   602.05   659.49   677.15
          (Kelvin)            822.16  1139.18  1198.20  1249.55  1260.23
                             1317.64  1385.27  1557.48  1560.43  1584.53
                             1659.12  1686.55  1727.75  1760.14  1768.49
                             1884.82  1929.45  1956.58  1977.66  2045.80
                             2095.26  2133.45  2162.26  2162.35  2180.98
                             2191.07  2193.83  4314.96  4317.66  4331.52
                             4331.71  4488.57  4488.96  4490.56  4492.42
                             5118.37  5118.48

 Zero-point correction=                           0.150118 (Hartree/Particle)
 Thermal correction to Energy=                    0.155439
 Thermal correction to Enthalpy=                  0.156383
 Thermal correction to Gibbs Free Energy=         0.121698
 Sum of electronic and zero-point Energies=           -267.659728
 Sum of electronic and thermal Energies=              -267.654407
 Sum of electronic and thermal Enthalpies=            -267.653463
 Sum of electronic and thermal Free Energies=         -267.688148

                     E (Thermal)             CV                S
                      KCal/Mol        Cal/Mol-Kelvin    Cal/Mol-Kelvin
 Total                   97.539             20.871             73.001
 Electronic               0.000              0.000              0.000
 Translational            0.889              2.981             39.271
 Rotational               0.889              2.981             26.122
 Vibrational             95.762             14.909              7.608
 Vibration     1          0.672              1.734              1.616
 Vibration     2          0.679              1.713              1.542
 Vibration     3          0.781              1.430              0.897
 Vibration     4          0.816              1.342              0.771
 Vibration     5          0.828              1.315              0.736
 Vibration     6          0.928              1.093              0.501

 Optimization completed.
    -- Stationary point found.
 Normal termination of Gaussian 09 at Tue Mar 18 19:52:57 2025.
