 Gaussian 09, Revision D.01,
 Gaussian 09:  ES64L-G09RevD.01 24-Apr-2013

 ---------------------------------
 #m062X/6-31+G(d) OPT Freq=noraman
 ---------------------------------

 --------------------------------
 5-chloro-1H-pyrimidine-2,4-dione
 --------------------------------
 Symbolic Z-matrix:
 Charge =  0 Multiplicity = 1

 SCF Done:  E(RM062X) =  -874.226797178     A.U. after   14 cycles
 SCF Done:  E(RM062X) =  -874.229768813     A.U. after   12 cycles
 SCF Done:  E(RM062X) =  -874.229921395     A.U. after   11 cycles
 SCF Done:  E(RM062X) =  -874.229949104     A.U. after   10 cycles
 SCF Done:  E(RM062X) =  -874.229948308     A.U. after   10 cycles
 SCF Done:  E(RM062X) =  -874.229951687     A.U. after   10 cycles
 Optimization completed.
    -- Stationary point found.
 Normal termination of Gaussian 09 at Mon Mar 17 15:02:35 2025.

 ---------------------------------------------------------------------
 #N Geom=AllCheck Guess=TCheck SCRF=Check GenChk RM062X/6-31+G(d) Freq
 ---------------------------------------------------------------------

 Structure from the checkpoint file:  "/srv/scratch/z5358697/gauss/Gau-2070399.chk"
 --------------------------------
 5-chloro-1H-pyrimidine-2,4-dione
 --------------------------------
 Charge =  0 Multiplicity = 1

                         Standard orientation:
 ---------------------------------------------------------------------
 Center     Atomic      Atomic             Coordinates (Angstroms)
 Number     Number       Type             X           Y           Z
 ---------------------------------------------------------------------
      1          6           0       -0.063542   -1.401154   -0.000008
      2          6           0       -0.854429   -0.312004    0.000014
      3          6           0       -0.257941    1.033465   -0.000078
      4          8           0       -0.864282    2.079559    0.000003
      5          7           0        1.143571    1.007685    0.000042
      6          6           0        1.986989   -0.087933    0.000157
      7          8           0        3.196066   -0.011316   -0.000089
      8          7           0        1.306335   -1.295827    0.000014
      9         17           0       -2.570484   -0.429869   -0.000003
     10          1           0       -0.466935   -2.407505   -0.000043
     11          1           0        1.603685    1.913244   -0.000023
     12          1           0        1.891397   -2.121158   -0.000098
 ---------------------------------------------------------------------

 SCF Done:  E(RM062X) =  -874.229951687     A.U. after    1 cycles

 The electronic state is 1-A.
 Alpha  occ. eigenvalues -- -102.69390 -19.65096 -19.65067 -14.85693 -14.83979
 Alpha  occ. eigenvalues --  -10.73052 -10.70163 -10.65812 -10.64135  -9.83993
 Alpha  occ. eigenvalues --   -7.56437  -7.55709  -7.55701  -1.22779  -1.19895
 Alpha  occ. eigenvalues --   -1.11884  -1.06062  -1.00250  -0.88673  -0.80063
 Alpha  occ. eigenvalues --   -0.77689  -0.68080  -0.67053  -0.61850  -0.58761
 Alpha  occ. eigenvalues --   -0.57568  -0.54666  -0.52560  -0.51615  -0.51109
 Alpha  occ. eigenvalues --   -0.47455  -0.42040  -0.40034  -0.39669  -0.37184
 Alpha  occ. eigenvalues --   -0.36685  -0.31108
 Alpha virt. eigenvalues --   -0.03237  -0.01259   0.01349   0.02031   0.02520
 Alpha virt. eigenvalues --    0.03382   0.03817   0.05260   0.06036   0.07381
 Alpha virt. eigenvalues --    0.07537   0.08511   0.09316   0.09629   0.11159

 Mulliken charges:
               1
     1  C   -0.407284
     2  C    0.295118
     3  C    0.386274
     4  O   -0.467705
     5  N   -0.753551
     6  C    0.701562
     7  O   -0.508893
     8  N   -0.625634
     9  Cl   0.166657
    10  H    0.259139
    11  H    0.480041
    12  H    0.474276
 Sum of Mulliken charges =   0.00000

 Dipole moment (field-independent basis, Debye):
    X=              0.4913    Y=             -4.1412    Z=              0.0000  Tot=              4.1702
 Quadrupole moment (field-independent basis, Debye-Ang):
   XX=            -71.3217   YY=            -52.2713   ZZ=            -58.4237
   XY=              2.4395   XZ=              0.0007   YZ=              0.0002

  Exact polarizability: 108.119  -8.482  78.929  -0.001   0.000  41.171
 Approx polarizability: 125.150 -17.305 100.456  -0.002   0.001  52.313

                      1                      2                      3
                      A                      A                      A
 Frequencies --     95.0437               149.6177               226.1265
 Red. masses --     11.9105                 8.5137                14.9516
 Frc consts  --      0.0634                 0.1123                 0.4504
 IR Inten    --      1.0146                 0.3289                 0.4649

                      4                      5                      6
                      A                      A                      A
 Frequencies --    286.8026               367.9098               378.2280
 Red. masses --     11.7395                17.3213                 2.9965
 Frc consts  --      0.5689                 1.3814                 0.2526
 IR Inten    --      0.2714                 7.6665                26.9849

                      7                      8                      9
                      A                      A                      A
 Frequencies --    412.4560               544.7631               546.0211
 Red. masses --     12.2330                 8.4190                 1.1181
 Frc consts  --      1.2261                 1.4721                 0.1964
 IR Inten    --     18.9617                 7.4060                64.7761

                     10                     11                     12
                      A                      A                      A
 Frequencies --    613.6516               668.6332               674.9840
 Red. masses --      6.3033                 1.1473                 7.3617
 Frc consts  --      1.3985                 0.3022                 1.9761
 IR Inten    --      0.0169                87.1098                41.8195

                     13                     14                     15
                      A                      A                      A
 Frequencies --    745.5326               765.3235               792.7591
 Red. masses --      9.1894                11.1143                 9.0448
 Frc consts  --      3.0093                 3.8355                 3.3491
 IR Inten    --     69.4549                 0.3112                 6.3729

                     16                     17                     18
                      A                      A                      A
 Frequencies --    922.4432               993.4714              1102.3353
 Red. masses --      1.3724                 2.9852                 5.5332
 Frc consts  --      0.6880                 1.7359                 3.9615
 IR Inten    --     19.3105                11.8497                78.3667

                     19                     20                     21
                      A                      A                      A
 Frequencies --   1201.8251              1229.8630              1371.1961
 Red. masses --      2.3677                 2.1725                 1.9908
 Frc consts  --      2.0149                 1.9361                 2.2054
 IR Inten    --     89.1525                62.1506                 9.0222

                     22                     23                     24
                      A                      A                      A
 Frequencies --   1425.3828              1445.3431              1526.2857
 Red. masses --      1.6983                 3.3401                 3.1990
 Frc consts  --      2.0329                 4.1110                 4.3908
 IR Inten    --     14.7851                97.0778               118.8427

                     25                     26                     27
                      A                      A                      A
 Frequencies --   1725.2298              1849.7456              1868.9158
 Red. masses --      6.5301                 8.9898                 9.7798
 Frc consts  --     11.4515                18.1228                20.1261
 IR Inten    --     91.7149               898.3764               623.1979

                     28                     29                     30
                      A                      A                      A
 Frequencies --   3255.2090              3590.2404              3669.2261
 Red. masses --      1.0956                 1.0780                 1.0793
 Frc consts  --      6.8403                 8.1868                 8.5613
 IR Inten    --      1.9341                93.7261               139.4467

 - Thermochemistry -
 -------------------
 Temperature   298.150 Kelvin.  Pressure   1.00000 Atm.
 Atom     1 has atomic number  6 and mass  12.00000

 Molecular mass:   145.98831 amu.
 Principal axes and moments of inertia in atomic units:
                           1         2         3
     Eigenvalues --   589.347211827.644752416.99196
           X            1.00000  -0.00283   0.00000
           Y            0.00283   1.00000   0.00000
           Z            0.00000   0.00000   1.00000
 This molecule is an asymmetric top.
 Rotational symmetry number  1.
 Warning -- assumption of classical behavior for rotation
           may cause significant error
 Rotational temperatures (Kelvin)      0.14697     0.04739     0.03584
 Rotational constants (GHZ):           3.06227     0.98747     0.74669
 Zero-point vibrational energy     206024.2 (Joules/Mol)
                                   49.24098 (Kcal/Mol)
 Warning -- explicit consideration of  10 degrees of freedom as
           vibrations may cause significant error
 Vibrational temperatures:    136.75   215.27   325.35   412.64   529.34
          (Kelvin)            544.19   593.43   783.79   785.60   882.91
                              962.01   971.15  1072.65  1101.13  1140.60
                             1327.19  1429.38  1586.01  1729.16  1769.50
                             1972.84  2050.81  2079.52  2195.98  2482.22
                             2661.37  2688.95  4683.51  5165.55  5279.19

 Zero-point correction=                           0.078470 (Hartree/Particle)
 Thermal correction to Energy=                    0.085845
 Thermal correction to Enthalpy=                  0.086789
 Thermal correction to Gibbs Free Energy=         0.045816
 Sum of electronic and zero-point Energies=           -874.151481
 Sum of electronic and thermal Energies=              -874.144107
 Sum of electronic and thermal Enthalpies=            -874.143163
 Sum of electronic and thermal Free Energies=         -874.184135

                     E (Thermal)             CV                S
                      KCal/Mol        Cal/Mol-Kelvin    Cal/Mol-Kelvin
 Total                   53.868             26.972             86.234
 Electronic               0.000              0.000              0.000
 Translational            0.889              2.981             40.846
 Rotational               0.889              2.981             29.344
 Vibrational             52.091             21.010             16.044
 Vibration     1          0.603              1.953              3.553
 Vibration     2          0.618              1.903              2.677
 Vibration     3          0.650              1.801              1.909
 Vibration     4          0.684              1.698              1.493
 Vibration     5          0.741              1.538              1.088
 Vibration     6          0.749              1.517              1.046
 Vibration     7          0.776              1.443              0.918
 Vibration     8          0.900              1.151              0.555
 Vibration     9          0.901              1.148              0.552
 Vibration    10          0.973              1.003              0.427

 Optimization completed.
    -- Stationary point found.
 Normal termination of Gaussian 09 at Mon Mar 17 15:07:26 2025.
