 Gaussian 09, Revision D.01,
 Gaussian 09:  ES64L-G09RevD.01 24-Apr-2013

 ---------------------------------
 #m062X/6-31+G(d) OPT Freq=noraman
 ---------------------------------

 -----------------------
 cyclohepta-1,3,5-triene
 -----------------------
 Symbolic Z-matrix:
 Charge =  0 Multiplicity = 1

 SCF Done:  E(RM062X) =  -271.374559092     A.U. after   12 cycles
 SCF Done:  E(RM062X) =  -271.376609905     A.U. after   11 cycles
 SCF Done:  E(RM062X) =  -271.377329859     A.U. after   11 cycles
 SCF Done:  E(RM062X) =  -271.309350865     A.U. after   15 cycles
 SCF Done:  E(RM062X) =  -271.380248147     A.U. after   12 cycles
 SCF Done:  E(RM062X) =  -271.382861641     A.U. after   12 cycles
 SCF Done:  E(RM062X) =  -271.385362886     A.U. after   12 cycles
 SCF Done:  E(RM062X) =  -271.386598841     A.U. after   12 cycles
 SCF Done:  E(RM062X) =  -271.386867846     A.U. after   11 cycles
 SCF Done:  E(RM062X) =  -271.386881159     A.U. after   11 cycles
 SCF Done:  E(RM062X) =  -271.386915175     A.U. after   11 cycles
 SCF Done:  E(RM062X) =  -271.386922571     A.U. after   10 cycles
 SCF Done:  E(RM062X) =  -271.386922757     A.U. after    8 cycles
 Optimization completed.
    -- Stationary point found.
 Normal termination of Gaussian 09 at Mon Mar 17 19:49:19 2025.

 ---------------------------------------------------------------------
 #N Geom=AllCheck Guess=TCheck SCRF=Check GenChk RM062X/6-31+G(d) Freq
 ---------------------------------------------------------------------

 Structure from the checkpoint file:  "/srv/scratch/z5358697/gauss/Gau-2208810.chk"
 -----------------------
 cyclohepta-1,3,5-triene
 -----------------------
 Charge =  0 Multiplicity = 1

                         Standard orientation:
 ---------------------------------------------------------------------
 Center     Atomic      Atomic             Coordinates (Angstroms)
 Number     Number       Type             X           Y           Z
 ---------------------------------------------------------------------
      1          6           0        1.437130    0.000001    0.547810
      2          6           0        0.966736    1.217010   -0.202943
      3          6           0       -0.342126    1.526016   -0.283638
      4          6           0       -1.421971    0.680077    0.191158
      5          6           0       -1.421969   -0.680080    0.191158
      6          6           0       -0.342124   -1.526016   -0.283638
      7          6           0        0.966738   -1.217008   -0.202943
      8          1           0        0.986915    0.000001    1.551448
      9          1           0        2.523403    0.000003    0.661137
     10          1           0        1.703800    1.862616   -0.676035
     11          1           0       -0.632164    2.465808   -0.750807
     12          1           0       -2.354045    1.179682    0.449658
     13          1           0       -2.354044   -1.179687    0.449656
     14          1           0       -0.632157   -2.465809   -0.750807
     15          1           0        1.703801   -1.862615   -0.676034
 ---------------------------------------------------------------------

 SCF Done:  E(RM062X) =  -271.386922757     A.U. after    1 cycles

 The electronic state is 1-A.
 Alpha  occ. eigenvalues --  -10.55914 -10.55912 -10.55798 -10.55704 -10.55243
 Alpha  occ. eigenvalues --  -10.55043 -10.55042  -0.94688  -0.86490  -0.86377
 Alpha  occ. eigenvalues --   -0.75064  -0.71474  -0.61512  -0.58780  -0.57591
 Alpha  occ. eigenvalues --   -0.51834  -0.51700  -0.49256  -0.44063  -0.43942
 Alpha  occ. eigenvalues --   -0.41752  -0.40163  -0.37363  -0.31088  -0.27401
 Alpha virt. eigenvalues --   -0.00671   0.02223   0.02952   0.03537   0.04430
 Alpha virt. eigenvalues --    0.04801   0.05057   0.05832   0.06905   0.08678
 Alpha virt. eigenvalues --    0.09136   0.10023   0.11237   0.11403   0.12671

 Mulliken charges:
               1
     1  C   -0.723477
     2  C   -0.059105
     3  C   -0.190201
     4  C   -0.219778
     5  C   -0.219777
     6  C   -0.190201
     7  C   -0.059104
     8  H    0.249528
     9  H    0.210588
    10  H    0.201200
    11  H    0.201585
    12  H    0.197979
    13  H    0.197979
    14  H    0.201585
    15  H    0.201200
 Sum of Mulliken charges =   0.00000

 Dipole moment (field-independent basis, Debye):
    X=              0.2944    Y=              0.0000    Z=             -0.1225  Tot=              0.3189
 Quadrupole moment (field-independent basis, Debye-Ang):
   XX=            -38.4200   YY=            -40.7336   ZZ=            -45.8121
   XY=              0.0000   XZ=             -0.7594   YZ=              0.0000

  Exact polarizability:  93.000   0.000  88.180  -2.496   0.000  54.620
 Approx polarizability: 121.114   0.000 108.375  -3.693   0.000  67.423

                      1                      2                      3
                      A                      A                      A
 Frequencies --    233.6148               292.8453               359.1763
 Red. masses --      2.1961                 2.9997                 3.1335
 Frc consts  --      0.0706                 0.1516                 0.2382
 IR Inten    --      0.4651                 1.0073                 2.1116

                      4                      5                      6
                      A                      A                      A
 Frequencies --    409.3408               431.6362               609.1191
 Red. masses --      5.1126                 2.1682                 2.5059
 Frc consts  --      0.5047                 0.2380                 0.5478
 IR Inten    --      0.5863                 8.4967                 4.4522

                      7                      8                      9
                      A                      A                      A
 Frequencies --    664.4920               732.3789               766.2558
 Red. masses --      2.0052                 1.4719                 1.4716
 Frc consts  --      0.5216                 0.4651                 0.5091
 IR Inten    --     13.7199                91.5209                36.3675

                     10                     11                     12
                      A                      A                      A
 Frequencies --    819.9257               885.7861               942.7947
 Red. masses --      1.6299                 3.8355                 2.6235
 Frc consts  --      0.6456                 1.7731                 1.3739
 IR Inten    --      2.0655                 0.0140                 2.5665

                     13                     14                     15
                      A                      A                      A
 Frequencies --    955.6710               984.6415               991.9245
 Red. masses --      2.6034                 2.4107                 1.4273
 Frc consts  --      1.4009                 1.3771                 0.8274
 IR Inten    --      0.2214                 0.9309                 0.0803

                     16                     17                     18
                      A                      A                      A
 Frequencies --    999.7098              1020.4549              1052.0680
 Red. masses --      1.3225                 1.2939                 2.2644
 Frc consts  --      0.7787                 0.7938                 1.4767
 IR Inten    --      0.4417                 0.1067                 2.3932

                     19                     20                     21
                      A                      A                      A
 Frequencies --   1082.1718              1209.2319              1227.3487
 Red. masses --      1.6849                 1.1092                 1.1407
 Frc consts  --      1.1626                 0.9556                 1.0124
 IR Inten    --      0.8714                 0.0372                 0.8828

                     22                     23                     24
                      A                      A                      A
 Frequencies --   1251.8543              1273.9170              1337.7931
 Red. masses --      1.0947                 1.1062                 1.4501
 Frc consts  --      1.0108                 1.0577                 1.5291
 IR Inten    --      0.4407                 0.7728                 1.4246

                     25                     26                     27
                      A                      A                      A
 Frequencies --   1392.3085              1431.8309              1490.0112
 Red. masses --      1.3913                 1.4988                 1.8503
 Frc consts  --      1.5891                 1.8104                 2.4202
 IR Inten    --      1.3688                 3.6332                 0.0016

                     28                     29                     30
                      A                      A                      A
 Frequencies --   1500.7276              1630.7075              1712.7512
 Red. masses --      1.1089                 8.2942                 6.7346
 Frc consts  --      1.4715                12.9951                11.6399
 IR Inten    --      8.0425                 0.1556                 2.3339

                     31                     32                     33
                      A                      A                      A
 Frequencies --   1717.0671              3051.4926              3144.6211
 Red. masses --      5.1960                 1.0684                 1.0949
 Frc consts  --      9.0259                 5.8615                 6.3789
 IR Inten    --      0.3375                22.8705                17.5393

                     34                     35                     36
                      A                      A                      A
 Frequencies --   3171.9307              3179.4477              3183.7280
 Red. masses --      1.0833                 1.0862                 1.0865
 Frc consts  --      6.4215                 6.4696                 6.4887
 IR Inten    --      0.0775                 1.5119                 5.2386

                     37                     38                     39
                      A                      A                      A
 Frequencies --   3195.7870              3203.6726              3207.4225
 Red. masses --      1.0936                 1.0966                 1.0971
 Frc consts  --      6.5809                 6.6314                 6.6499
 IR Inten    --     40.7214                34.0411                 5.5383

 - Thermochemistry -
 -------------------
 Temperature   298.150 Kelvin.  Pressure   1.00000 Atm.
 Atom     1 has atomic number  6 and mass  12.00000

 Molecular mass:    92.06260 amu.
 Principal axes and moments of inertia in atomic units:
                           1         2         3
     Eigenvalues --   487.43355 490.36888 886.90173
           X            0.00000   1.00000  -0.00241
           Y            1.00000   0.00000   0.00000
           Z            0.00000   0.00241   1.00000
 This molecule is an asymmetric top.
 Rotational symmetry number  1.
 Warning -- assumption of classical behavior for rotation
           may cause significant error
 Rotational temperatures (Kelvin)      0.17769     0.17663     0.09766
 Rotational constants (GHZ):           3.70254     3.68037     2.03488
 Zero-point vibrational energy     339426.4 (Joules/Mol)
                                   81.12485 (Kcal/Mol)
 Warning -- explicit consideration of   6 degrees of freedom as
           vibrations may cause significant error
 Vibrational temperatures:    336.12   421.34   516.77   588.95   621.03
          (Kelvin)            876.39   956.05  1053.73  1102.47  1179.69
                             1274.45  1356.47  1375.00  1416.68  1427.16
                             1438.36  1468.21  1513.69  1557.00  1739.81
                             1765.88  1801.14  1832.88  1924.78  2003.22
                             2060.08  2143.79  2159.21  2346.22  2464.26
                             2470.47  4390.41  4524.40  4563.70  4574.51
                             4580.67  4598.02  4609.36  4614.76

 Zero-point correction=                           0.129281 (Hartree/Particle)
 Thermal correction to Energy=                    0.134978
 Thermal correction to Enthalpy=                  0.135922
 Thermal correction to Gibbs Free Energy=         0.100212
 Sum of electronic and zero-point Energies=           -271.257642
 Sum of electronic and thermal Energies=              -271.251945
 Sum of electronic and thermal Enthalpies=            -271.251001
 Sum of electronic and thermal Free Energies=         -271.286711

                     E (Thermal)             CV                S
                      KCal/Mol        Cal/Mol-Kelvin    Cal/Mol-Kelvin
 Total                   84.700             22.702             75.158
 Electronic               0.000              0.000              0.000
 Translational            0.889              2.981             39.472
 Rotational               0.889              2.981             26.852
 Vibrational             82.922             16.740              8.834
 Vibration     1          0.654              1.789              1.851
 Vibration     2          0.688              1.687              1.457
 Vibration     3          0.734              1.556              1.126
 Vibration     4          0.774              1.450              0.929
 Vibration     5          0.793              1.401              0.853
 Vibration     6          0.968              1.013              0.434

 Optimization completed.
    -- Stationary point found.
 Normal termination of Gaussian 09 at Mon Mar 17 19:54:19 2025.
