 Gaussian 09, Revision D.01,
 Gaussian 09:  ES64L-G09RevD.01 24-Apr-2013

 ---------------------------------
 #m062X/6-31+G(d) OPT Freq=noraman
 ---------------------------------

 ------------------------
 2,6-dichlorobenzonitrile
 ------------------------
 Symbolic Z-matrix:
 Charge =  0 Multiplicity = 1

 SCF Done:  E(RM062X) =  -1243.49167687     A.U. after   15 cycles
 SCF Done:  E(RM062X) =  -1243.49290614     A.U. after   13 cycles
 SCF Done:  E(RM062X) =  -1243.49296125     A.U. after   12 cycles
 Optimization completed.
    -- Stationary point found.
 Normal termination of Gaussian 09 at Mon Mar 17 15:25:35 2025.

 ---------------------------------------------------------------------
 #N Geom=AllCheck Guess=TCheck SCRF=Check GenChk RM062X/6-31+G(d) Freq
 ---------------------------------------------------------------------

 Structure from the checkpoint file:  "/srv/scratch/z5358697/gauss/Gau-2720247.chk"
 ------------------------
 2,6-dichlorobenzonitrile
 ------------------------
 Charge =  0 Multiplicity = 1

                         Standard orientation:
 ---------------------------------------------------------------------
 Center     Atomic      Atomic             Coordinates (Angstroms)
 Number     Number       Type             X           Y           Z
 ---------------------------------------------------------------------
      1          6           0       -0.000043    2.463494    0.000023
      2          6           0        1.211366    1.778179    0.000008
      3          6           0        1.207357    0.388623   -0.000044
      4          6           0        0.000004   -0.327290   -0.000031
      5          6           0       -1.207368    0.388584   -0.000012
      6          6           0       -1.211414    1.778152    0.000008
      7         17           0       -2.709299   -0.469553   -0.000011
      8          6           0        0.000035   -1.763530    0.000062
      9          7           0        0.000041   -2.920237    0.000014
     10         17           0        2.709312   -0.469505   -0.000007
     11          1           0       -0.000055    3.549020    0.000053
     12          1           0        2.156449    2.309705    0.000040
     13          1           0       -2.156521    2.309638    0.000032
 ---------------------------------------------------------------------

 SCF Done:  E(RM062X) =  -1243.49296125     A.U. after    1 cycles

 The electronic state is 1-A.
 Alpha  occ. eigenvalues -- -102.69967-102.69967 -14.78674 -10.66252 -10.66251
 Alpha  occ. eigenvalues --  -10.63637 -10.60887 -10.60638 -10.60165 -10.60159
 Alpha  occ. eigenvalues --   -9.84609  -9.84609  -7.57033  -7.57032  -7.56341
 Alpha  occ. eigenvalues --   -7.56341  -7.56309  -7.56309  -1.05827  -1.02340
 Alpha  occ. eigenvalues --   -1.00763  -0.95612  -0.89991  -0.86045  -0.76338
 Alpha  occ. eigenvalues --   -0.72129  -0.66381  -0.59799  -0.59338  -0.55060
 Alpha  occ. eigenvalues --   -0.53398  -0.52859  -0.48413  -0.47230  -0.45908
 Alpha  occ. eigenvalues --   -0.45322  -0.43796  -0.42061  -0.41162  -0.40825
 Alpha  occ. eigenvalues --   -0.39535  -0.33777  -0.32876
 Alpha virt. eigenvalues --   -0.04776  -0.02401   0.00242   0.01061   0.02026
 Alpha virt. eigenvalues --    0.03363   0.03739   0.04857   0.05014   0.05188
 Alpha virt. eigenvalues --    0.05671   0.07532   0.07788   0.08176   0.08396

 Mulliken charges:
               1
     1  C    0.186543
     2  C   -0.524019
     3  C    0.642211
     4  C   -0.766671
     5  C    0.642250
     6  C   -0.524036
     7  Cl   0.316100
     8  C   -0.582667
     9  N   -0.427397
    10  Cl   0.316094
    11  H    0.232009
    12  H    0.244791
    13  H    0.244791
 Sum of Mulliken charges =   0.00000

 Dipole moment (field-independent basis, Debye):
    X=             -0.0002    Y=              5.5860    Z=              0.0001  Tot=              5.5860
 Quadrupole moment (field-independent basis, Debye-Ang):
   XX=            -68.3478   YY=            -73.2979   ZZ=            -72.6629
   XY=              0.0001   XZ=              0.0001   YZ=              0.0003

  Exact polarizability: 127.939   0.000 131.753   0.000   0.001  55.110
 Approx polarizability: 155.164  -0.001 173.194   0.000   0.002  71.030

                      1                      2                      3
                      A                      A                      A
 Frequencies --     74.6915               132.6553               193.1001
 Red. masses --     14.5479                15.9215                 7.8704
 Frc consts  --      0.0478                 0.1651                 0.1729
 IR Inten    --      0.2594                 2.3552                 0.1006

                      4                      5                      6
                      A                      A                      A
 Frequencies --    196.3468               197.5366               355.7906
 Red. masses --      4.5758                20.7396                 7.6569
 Frc consts  --      0.1039                 0.4768                 0.5711
 IR Inten    --      0.0000                 0.0081                 0.3346

                      7                      8                      9
                      A                      A                      A
 Frequencies --    366.1356               419.7378               426.4045
 Red. masses --     19.4446                 5.7175                10.0387
 Frc consts  --      1.5358                 0.5935                 1.0754
 IR Inten    --      0.7210                 6.0558                 5.7985

                     10                     11                     12
                      A                      A                      A
 Frequencies --    542.7493               557.9398               571.3603
 Red. masses --      5.3704                10.1330                 4.5603
 Frc consts  --      0.9321                 1.8585                 0.8771
 IR Inten    --      0.0000                 2.8320                 1.5883

                     13                     14                     15
                      A                      A                      A
 Frequencies --    598.2543               749.9849               789.8033
 Red. masses --      8.0484                 3.0067                 6.2806
 Frc consts  --      1.6972                 0.9964                 2.3083
 IR Inten    --      0.0727                18.3001                 0.8401

                     16                     17                     18
                      A                      A                      A
 Frequencies --    801.3694               814.7617               918.9005
 Red. masses --      1.6382                 9.1369                 1.3653
 Frc consts  --      0.6198                 3.5736                 0.6792
 IR Inten    --     40.4129                82.1237                 0.0000

                     19                     20                     21
                      A                      A                      A
 Frequencies --   1010.0614              1100.3440              1134.5124
 Red. masses --      1.3312                 2.3513                 6.7064
 Frc consts  --      0.8002                 1.6773                 5.0858
 IR Inten    --      0.3867                 0.1987                16.5514

                     22                     23                     24
                      A                      A                      A
 Frequencies --   1192.1247              1235.5553              1244.7661
 Red. masses --      1.1838                 1.7203                 2.7429
 Frc consts  --      0.9913                 1.5473                 2.5040
 IR Inten    --      1.3874                29.5398                 0.8057

                     25                     26                     27
                      A                      A                      A
 Frequencies --   1327.1672              1491.4431              1491.9834
 Red. masses --      8.3179                 2.5246                 3.6700
 Frc consts  --      8.6321                 3.3088                 4.8133
 IR Inten    --      1.2060                90.0040                11.8382

                     28                     29                     30
                      A                      A                      A
 Frequencies --   1651.4628              1671.0709              2412.3630
 Red. masses --      6.8840                 7.3771                12.6840
 Frc consts  --     11.0619                12.1374                43.4901
 IR Inten    --     52.4912                28.3633                10.0402

                     31                     32                     33
                      A                      A                      A
 Frequencies --   3223.1669              3241.5007              3245.5429
 Red. masses --      1.0891                 1.0936                 1.0977
 Frc consts  --      6.6665                 6.7700                 6.8123
 IR Inten    --      2.1504                 0.2908                 0.0528

 - Thermochemistry -
 -------------------
 Temperature   298.150 Kelvin.  Pressure   1.00000 Atm.
 Atom     1 has atomic number  6 and mass  12.00000

 Molecular mass:   170.96425 amu.
 Principal axes and moments of inertia in atomic units:
                           1         2         3
     Eigenvalues --  1245.390232117.442913362.83314
           X            1.00000   0.00000   0.00000
           Y            0.00000   1.00000   0.00000
           Z            0.00000   0.00000   1.00000
 This molecule is an asymmetric top.
 Rotational symmetry number  1.
 Warning -- assumption of classical behavior for rotation
           may cause significant error
 Rotational temperatures (Kelvin)      0.06955     0.04090     0.02576
 Rotational constants (GHZ):           1.44914     0.85232     0.53667
 Zero-point vibrational energy     211622.9 (Joules/Mol)
                                   50.57909 (Kcal/Mol)
 Warning -- explicit consideration of  13 degrees of freedom as
           vibrations may cause significant error
 Vibrational temperatures:    107.46   190.86   277.83   282.50   284.21
          (Kelvin)            511.90   526.79   603.91   613.50   780.89
                              802.75   822.06   860.75  1079.06  1136.35
                             1152.99  1172.26  1322.09  1453.25  1583.15
                             1632.31  1715.20  1777.69  1790.94  1909.50
                             2145.85  2146.63  2376.08  2404.30  3470.85
                             4637.41  4663.79  4669.61

 Zero-point correction=                           0.080603 (Hartree/Particle)
 Thermal correction to Energy=                    0.089118
 Thermal correction to Enthalpy=                  0.090062
 Thermal correction to Gibbs Free Energy=         0.045992
 Sum of electronic and zero-point Energies=          -1243.412358
 Sum of electronic and thermal Energies=             -1243.403843
 Sum of electronic and thermal Enthalpies=           -1243.402899
 Sum of electronic and thermal Free Energies=        -1243.446969

                     E (Thermal)             CV                S
                      KCal/Mol        Cal/Mol-Kelvin    Cal/Mol-Kelvin
 Total                   55.922             30.737             92.753
 Electronic               0.000              0.000              0.000
 Translational            0.889              2.981             41.317
 Rotational               0.889              2.981             30.562
 Vibrational             54.145             24.775             20.874
 Vibration     1          0.599              1.966              4.026
 Vibration     2          0.613              1.921              2.907
 Vibration     3          0.635              1.849              2.198
 Vibration     4          0.636              1.845              2.167
 Vibration     5          0.637              1.843              2.156
 Vibration     6          0.731              1.563              1.140
 Vibration     7          0.739              1.542              1.096
 Vibration     8          0.782              1.427              0.893
 Vibration     9          0.788              1.413              0.870
 Vibration    10          0.898              1.156              0.559
 Vibration    11          0.913              1.122              0.528
 Vibration    12          0.928              1.093              0.502
 Vibration    13          0.956              1.036              0.453

 Normal termination of Gaussian 09 at Mon Mar 17 15:33:37 2025.
